+ 0.1 0 4 ping 50000 ------- 0 0.0 5.0 -1 0
- 0.1 0 4 ping 50000 ------- 0 0.0 5.0 -1 0
+ 0.1 0 4 ping 50000 ------- 0 0.0 5.0 -1 1
+ 0.1 2 4 ping 30000 ------- 0 2.0 3.0 -1 2
- 0.1 2 4 ping 30000 ------- 0 2.0 3.0 -1 2
+ 0.1 2 4 ping 30000 ------- 0 2.0 3.0 -1 3
+ 0.11 0 4 ping 50000 ------- 0 0.0 5.0 -1 4
+ 0.11 2 4 ping 30000 ------- 0 2.0 3.0 -1 5
+ 0.12 0 4 ping 50000 ------- 0 0.0 5.0 -1 6
+ 0.12 2 4 ping 30000 ------- 0 2.0 3.0 -1 7
d 0.12 2 4 ping 30000 ------- 0 2.0 3.0 -1 7
+ 0.13 0 4 ping 50000 ------- 0 0.0 5.0 -1 8
+ 0.13 2 4 ping 30000 ------- 0 2.0 3.0 -1 9
d 0.13 2 4 ping 30000 ------- 0 2.0 3.0 -1 9
+ 0.14 0 4 ping 50000 ------- 0 0.0 5.0 -1 10
d 0.14 0 4 ping 50000 ------- 0 0.0 5.0 -1 10
+ 0.14 2 4 ping 30000 ------- 0 2.0 3.0 -1 11
d 0.14 2 4 ping 30000 ------- 0 2.0 3.0 -1 11
+ 0.15 0 4 ping 50000 ------- 0 0.0 5.0 -1 12
d 0.15 0 4 ping 50000 ------- 0 0.0 5.0 -1 12
+ 0.15 2 4 ping 30000 ------- 0 2.0 3.0 -1 13
d 0.15 2 4 ping 30000 ------- 0 2.0 3.0 -1 13
+ 0.16 0 4 ping 50000 ------- 0 0.0 5.0 -1 14
d 0.16 0 4 ping 50000 ------- 0 0.0 5.0 -1 14
+ 0.16 2 4 ping 30000 ------- 0 2.0 3.0 -1 15
d 0.16 2 4 ping 30000 ------- 0 2.0 3.0 -1 15
+ 0.17 0 4 ping 50000 ------- 0 0.0 5.0 -1 16
d 0.17 0 4 ping 50000 ------- 0 0.0 5.0 -1 16
+ 0.17 2 4 ping 30000 ------- 0 2.0 3.0 -1 17
d 0.17 2 4 ping 30000 ------- 0 2.0 3.0 -1 17
+ 0.18 0 4 ping 50000 ------- 0 0.0 5.0 -1 18
d 0.18 0 4 ping 50000 ------- 0 0.0 5.0 -1 18
+ 0.18 2 4 ping 30000 ------- 0 2.0 3.0 -1 19
d 0.18 2 4 ping 30000 ------- 0 2.0 3.0 -1 19
+ 0.19 0 4 ping 50000 ------- 0 0.0 5.0 -1 20
d 0.19 0 4 ping 50000 ------- 0 0.0 5.0 -1 20
+ 0.19 2 4 ping 30000 ------- 0 2.0 3.0 -1 21
d 0.19 2 4 ping 30000 ------- 0 2.0 3.0 -1 21
+ 0.2 0 4 ping 50000 ------- 0 0.0 5.0 -1 22
d 0.2 0 4 ping 50000 ------- 0 0.0 5.0 -1 22
+ 0.2 0 4 ping 50000 ------- 0 0.0 5.0 -1 23
d 0.2 0 4 ping 50000 ------- 0 0.0 5.0 -1 23
+ 0.2 2 4 ping 30000 ------- 0 2.0 3.0 -1 24
d 0.2 2 4 ping 30000 ------- 0 2.0 3.0 -1 24
+ 0.2 2 4 ping 30000 ------- 0 2.0 3.0 -1 25
d 0.2 2 4 ping 30000 ------- 0 2.0 3.0 -1 25
+ 0.21 0 4 ping 50000 ------- 0 0.0 5.0 -1 26
d 0.21 0 4 ping 50000 ------- 0 0.0 5.0 -1 26
+ 0.21 2 4 ping 30000 ------- 0 2.0 3.0 -1 27
d 0.21 2 4 ping 30000 ------- 0 2.0 3.0 -1 27
+ 0.22 0 4 ping 50000 ------- 0 0.0 5.0 -1 28
d 0.22 0 4 ping 50000 ------- 0 0.0 5.0 -1 28
+ 0.22 2 4 ping 30000 ------- 0 2.0 3.0 -1 29
d 0.22 2 4 ping 30000 ------- 0 2.0 3.0 -1 29
+ 0.23 0 4 ping 50000 ------- 0 0.0 5.0 -1 30
d 0.23 0 4 ping 50000 ------- 0 0.0 5.0 -1 30
+ 0.23 2 4 ping 30000 ------- 0 2.0 3.0 -1 31
d 0.23 2 4 ping 30000 ------- 0 2.0 3.0 -1 31
+ 0.24 0 4 ping 50000 ------- 0 0.0 5.0 -1 32
d 0.24 0 4 ping 50000 ------- 0 0.0 5.0 -1 32
+ 0.24 2 4 ping 30000 ------- 0 2.0 3.0 -1 33
d 0.24 2 4 ping 30000 ------- 0 2.0 3.0 -1 33
+ 0.25 0 4 ping 50000 ------- 0 0.0 5.0 -1 34
d 0.25 0 4 ping 50000 ------- 0 0.0 5.0 -1 34
+ 0.25 2 4 ping 30000 ------- 0 2.0 3.0 -1 35
d 0.25 2 4 ping 30000 ------- 0 2.0 3.0 -1 35
+ 0.26 0 4 ping 50000 ------- 0 0.0 5.0 -1 36
d 0.26 0 4 ping 50000 ------- 0 0.0 5.0 -1 36
+ 0.26 2 4 ping 30000 ------- 0 2.0 3.0 -1 37
d 0.26 2 4 ping 30000 ------- 0 2.0 3.0 -1 37
+ 0.27 0 4 ping 50000 ------- 0 0.0 5.0 -1 38
d 0.27 0 4 ping 50000 ------- 0 0.0 5.0 -1 38
+ 0.27 2 4 ping 30000 ------- 0 2.0 3.0 -1 39
d 0.27 2 4 ping 30000 ------- 0 2.0 3.0 -1 39
+ 0.28 0 4 ping 50000 ------- 0 0.0 5.0 -1 40
d 0.28 0 4 ping 50000 ------- 0 0.0 5.0 -1 40
+ 0.28 2 4 ping 30000 ------- 0 2.0 3.0 -1 41
d 0.28 2 4 ping 30000 ------- 0 2.0 3.0 -1 41
+ 0.29 0 4 ping 50000 ------- 0 0.0 5.0 -1 42
d 0.29 0 4 ping 50000 ------- 0 0.0 5.0 -1 42
+ 0.29 2 4 ping 30000 ------- 0 2.0 3.0 -1 43
d 0.29 2 4 ping 30000 ------- 0 2.0 3.0 -1 43
+ 0.3 0 4 ping 50000 ------- 0 0.0 5.0 -1 44
d 0.3 0 4 ping 50000 ------- 0 0.0 5.0 -1 44
+ 0.3 2 4 ping 30000 ------- 0 2.0 3.0 -1 45
d 0.3 2 4 ping 30000 ------- 0 2.0 3.0 -1 45
+ 0.4 0 4 ping 50000 ------- 0 0.0 5.0 -1 46
d 0.4 0 4 ping 50000 ------- 0 0.0 5.0 -1 46
+ 0.4 2 4 ping 30000 ------- 0 2.0 3.0 -1 47
d 0.4 2 4 ping 30000 ------- 0 2.0 3.0 -1 47
+ 0.5 0 4 ping 50000 ------- 0 0.0 5.0 -1 48
d 0.5 0 4 ping 50000 ------- 0 0.0 5.0 -1 48
+ 0.5 2 4 ping 30000 ------- 0 2.0 3.0 -1 49
d 0.5 2 4 ping 30000 ------- 0 2.0 3.0 -1 49
+ 0.6 0 4 ping 50000 ------- 0 0.0 5.0 -1 50
d 0.6 0 4 ping 50000 ------- 0 0.0 5.0 -1 50
+ 0.6 2 4 ping 30000 ------- 0 2.0 3.0 -1 51
d 0.6 2 4 ping 30000 ------- 0 2.0 3.0 -1 51
+ 0.7 0 4 ping 50000 ------- 0 0.0 5.0 -1 52
d 0.7 0 4 ping 50000 ------- 0 0.0 5.0 -1 52
+ 0.7 2 4 ping 30000 ------- 0 2.0 3.0 -1 53
d 0.7 2 4 ping 30000 ------- 0 2.0 3.0 -1 53
+ 0.8 0 4 ping 50000 ------- 0 0.0 5.0 -1 54
d 0.8 0 4 ping 50000 ------- 0 0.0 5.0 -1 54
+ 0.8 2 4 ping 30000 ------- 0 2.0 3.0 -1 55
d 0.8 2 4 ping 30000 ------- 0 2.0 3.0 -1 55
+ 0.9 0 4 ping 50000 ------- 0 0.0 5.0 -1 56
d 0.9 0 4 ping 50000 ------- 0 0.0 5.0 -1 56
+ 0.9 2 4 ping 30000 ------- 0 2.0 3.0 -1 57
d 0.9 2 4 ping 30000 ------- 0 2.0 3.0 -1 57
- 2.5 2 4 ping 30000 ------- 0 2.0 3.0 -1 3
r 2.501 2 4 ping 30000 ------- 0 2.0 3.0 -1 2
+ 2.501 4 3 ping 30000 ------- 0 2.0 3.0 -1 2
- 2.501 4 3 ping 30000 ------- 0 2.0 3.0 -1 2
