+ 0.1 0 1 cbr 500 ------- 0 0.0 2.0 0 0
- 0.1 0 1 cbr 500 ------- 0 0.0 2.0 0 0
+ 0.105 0 1 cbr 500 ------- 0 0.0 2.0 1 1
- 0.105 0 1 cbr 500 ------- 0 0.0 2.0 1 1
r 0.106 0 1 cbr 500 ------- 0 0.0 2.0 0 0
+ 0.106 1 2 cbr 500 ------- 0 0.0 2.0 0 0
- 0.106 1 2 cbr 500 ------- 0 0.0 2.0 0 0
+ 0.11 0 1 cbr 500 ------- 0 0.0 2.0 2 2
- 0.11 0 1 cbr 500 ------- 0 0.0 2.0 2 2
r 0.111 0 1 cbr 500 ------- 0 0.0 2.0 1 1
+ 0.111 1 2 cbr 500 ------- 0 0.0 2.0 1 1
- 0.113813 1 2 cbr 500 ------- 0 0.0 2.0 1 1
+ 0.115 0 1 cbr 500 ------- 0 0.0 2.0 3 3
- 0.115 0 1 cbr 500 ------- 0 0.0 2.0 3 3
r 0.116 0 1 cbr 500 ------- 0 0.0 2.0 2 2
+ 0.116 1 2 cbr 500 ------- 0 0.0 2.0 2 2
+ 0.12 0 1 cbr 500 ------- 0 0.0 2.0 4 4
- 0.12 0 1 cbr 500 ------- 0 0.0 2.0 4 4
r 0.121 0 1 cbr 500 ------- 0 0.0 2.0 3 3
+ 0.121 1 2 cbr 500 ------- 0 0.0 2.0 3 3
- 0.121625 1 2 cbr 500 ------- 0 0.0 2.0 2 2
r 0.123813 1 2 cbr 500 ------- 0 0.0 2.0 0 0
+ 0.125 0 1 cbr 500 ------- 0 0.0 2.0 5 5
- 0.125 0 1 cbr 500 ------- 0 0.0 2.0 5 5
r 0.126 0 1 cbr 500 ------- 0 0.0 2.0 4 4
+ 0.126 1 2 cbr 500 ------- 0 0.0 2.0 4 4
- 0.129438 1 2 cbr 500 ------- 0 0.0 2.0 3 3
+ 0.13 0 1 cbr 500 ------- 0 0.0 2.0 6 6
- 0.13 0 1 cbr 500 ------- 0 0.0 2.0 6 6
r 0.131 0 1 cbr 500 ------- 0 0.0 2.0 5 5
+ 0.131 1 2 cbr 500 ------- 0 0.0 2.0 5 5
r 0.131625 1 2 cbr 500 ------- 0 0.0 2.0 1 1
+ 0.135 0 1 cbr 500 ------- 0 0.0 2.0 7 7
- 0.135 0 1 cbr 500 ------- 0 0.0 2.0 7 7
r 0.136 0 1 cbr 500 ------- 0 0.0 2.0 6 6
+ 0.136 1 2 cbr 500 ------- 0 0.0 2.0 6 6
- 0.13725 1 2 cbr 500 ------- 0 0.0 2.0 4 4
r 0.139438 1 2 cbr 500 ------- 0 0.0 2.0 2 2
+ 0.14 0 1 cbr 500 ------- 0 0.0 2.0 8 8
- 0.14 0 1 cbr 500 ------- 0 0.0 2.0 8 8
r 0.141 0 1 cbr 500 ------- 0 0.0 2.0 7 7
+ 0.141 1 2 cbr 500 ------- 0 0.0 2.0 7 7
+ 0.145 0 1 cbr 500 ------- 0 0.0 2.0 9 9
- 0.145 0 1 cbr 500 ------- 0 0.0 2.0 9 9
- 0.145063 1 2 cbr 500 ------- 0 0.0 2.0 5 5
r 0.146 0 1 cbr 500 ------- 0 0.0 2.0 8 8
+ 0.146 1 2 cbr 500 ------- 0 0.0 2.0 8 8
r 0.14725 1 2 cbr 500 ------- 0 0.0 2.0 3 3
+ 0.15 0 1 cbr 500 ------- 0 0.0 2.0 10 10
- 0.15 0 1 cbr 500 ------- 0 0.0 2.0 10 10
r 0.151 0 1 cbr 500 ------- 0 0.0 2.0 9 9
+ 0.151 1 2 cbr 500 ------- 0 0.0 2.0 9 9
- 0.152875 1 2 cbr 500 ------- 0 0.0 2.0 6 6
+ 0.155 0 1 cbr 500 ------- 0 0.0 2.0 11 11
- 0.155 0 1 cbr 500 ------- 0 0.0 2.0 11 11
r 0.155063 1 2 cbr 500 ------- 0 0.0 2.0 4 4
r 0.156 0 1 cbr 500 ------- 0 0.0 2.0 10 10
+ 0.156 1 2 cbr 500 ------- 0 0.0 2.0 10 10
+ 0.16 0 1 cbr 500 ------- 0 0.0 2.0 12 12
- 0.16 0 1 cbr 500 ------- 0 0.0 2.0 12 12
- 0.160688 1 2 cbr 500 ------- 0 0.0 2.0 7 7
r 0.161 0 1 cbr 500 ------- 0 0.0 2.0 11 11
+ 0.161 1 2 cbr 500 ------- 0 0.0 2.0 11 11
r 0.162875 1 2 cbr 500 ------- 0 0.0 2.0 5 5
+ 0.165 0 1 cbr 500 ------- 0 0.0 2.0 13 13
- 0.165 0 1 cbr 500 ------- 0 0.0 2.0 13 13
r 0.166 0 1 cbr 500 ------- 0 0.0 2.0 12 12
+ 0.166 1 2 cbr 500 ------- 0 0.0 2.0 12 12
- 0.1685 1 2 cbr 500 ------- 0 0.0 2.0 8 8
+ 0.17 0 1 cbr 500 ------- 0 0.0 2.0 14 14
- 0.17 0 1 cbr 500 ------- 0 0.0 2.0 14 14
r 0.170688 1 2 cbr 500 ------- 0 0.0 2.0 6 6
r 0.171 0 1 cbr 500 ------- 0 0.0 2.0 13 13
+ 0.171 1 2 cbr 500 ------- 0 0.0 2.0 13 13
+ 0.175 0 1 cbr 500 ------- 0 0.0 2.0 15 15
- 0.175 0 1 cbr 500 ------- 0 0.0 2.0 15 15
r 0.176 0 1 cbr 500 ------- 0 0.0 2.0 14 14
+ 0.176 1 2 cbr 500 ------- 0 0.0 2.0 14 14
- 0.176313 1 2 cbr 500 ------- 0 0.0 2.0 9 9
r 0.1785 1 2 cbr 500 ------- 0 0.0 2.0 7 7
+ 0.18 0 1 cbr 500 ------- 0 0.0 2.0 16 16
- 0.18 0 1 cbr 500 ------- 0 0.0 2.0 16 16
r 0.181 0 1 cbr 500 ------- 0 0.0 2.0 15 15
+ 0.181 1 2 cbr 500 ------- 0 0.0 2.0 15 15
- 0.184125 1 2 cbr 500 ------- 0 0.0 2.0 10 10
+ 0.185 0 1 cbr 500 ------- 0 0.0 2.0 17 17
- 0.185 0 1 cbr 500 ------- 0 0.0 2.0 17 17
r 0.186 0 1 cbr 500 ------- 0 0.0 2.0 16 16
+ 0.186 1 2 cbr 500 ------- 0 0.0 2.0 16 16
r 0.186313 1 2 cbr 500 ------- 0 0.0 2.0 8 8
+ 0.19 0 1 cbr 500 ------- 0 0.0 2.0 18 18
- 0.19 0 1 cbr 500 ------- 0 0.0 2.0 18 18
r 0.191 0 1 cbr 500 ------- 0 0.0 2.0 17 17
+ 0.191 1 2 cbr 500 ------- 0 0.0 2.0 17 17
- 0.191938 1 2 cbr 500 ------- 0 0.0 2.0 11 11
r 0.194125 1 2 cbr 500 ------- 0 0.0 2.0 9 9
+ 0.195 0 1 cbr 500 ------- 0 0.0 2.0 19 19
- 0.195 0 1 cbr 500 ------- 0 0.0 2.0 19 19
r 0.196 0 1 cbr 500 ------- 0 0.0 2.0 18 18
+ 0.196 1 2 cbr 500 ------- 0 0.0 2.0 18 18
- 0.19975 1 2 cbr 500 ------- 0 0.0 2.0 12 12
+ 0.2 0 1 cbr 500 ------- 0 0.0 2.0 20 20
- 0.2 0 1 cbr 500 ------- 0 0.0 2.0 20 20
r 0.201 0 1 cbr 500 ------- 0 0.0 2.0 19 19
+ 0.201 1 2 cbr 500 ------- 0 0.0 2.0 19 19
r 0.201938 1 2 cbr 500 ------- 0 0.0 2.0 10 10
+ 0.205 0 1 cbr 500 ------- 0 0.0 2.0 21 21
- 0.205 0 1 cbr 500 ------- 0 0.0 2.0 21 21
r 0.206 0 1 cbr 500 ------- 0 0.0 2.0 20 20
+ 0.206 1 2 cbr 500 ------- 0 0.0 2.0 20 20
- 0.207563 1 2 cbr 500 ------- 0 0.0 2.0 13 13
r 0.20975 1 2 cbr 500 ------- 0 0.0 2.0 11 11
+ 0.21 0 1 cbr 500 ------- 0 0.0 2.0 22 22
- 0.21 0 1 cbr 500 ------- 0 0.0 2.0 22 22
r 0.211 0 1 cbr 500 ------- 0 0.0 2.0 21 21
+ 0.211 1 2 cbr 500 ------- 0 0.0 2.0 21 21
+ 0.215 0 1 cbr 500 ------- 0 0.0 2.0 23 23
- 0.215 0 1 cbr 500 ------- 0 0.0 2.0 23 23
- 0.215375 1 2 cbr 500 ------- 0 0.0 2.0 14 14
r 0.216 0 1 cbr 500 ------- 0 0.0 2.0 22 22
+ 0.216 1 2 cbr 500 ------- 0 0.0 2.0 22 22
r 0.217563 1 2 cbr 500 ------- 0 0.0 2.0 12 12
+ 0.22 0 1 cbr 500 ------- 0 0.0 2.0 24 24
- 0.22 0 1 cbr 500 ------- 0 0.0 2.0 24 24
r 0.221 0 1 cbr 500 ------- 0 0.0 2.0 23 23
+ 0.221 1 2 cbr 500 ------- 0 0.0 2.0 23 23
- 0.223188 1 2 cbr 500 ------- 0 0.0 2.0 15 15
+ 0.225 0 1 cbr 500 ------- 0 0.0 2.0 25 25
- 0.225 0 1 cbr 500 ------- 0 0.0 2.0 25 25
r 0.225375 1 2 cbr 500 ------- 0 0.0 2.0 13 13
r 0.226 0 1 cbr 500 ------- 0 0.0 2.0 24 24
+ 0.226 1 2 cbr 500 ------- 0 0.0 2.0 24 24
+ 0.23 0 1 cbr 500 ------- 0 0.0 2.0 26 26
- 0.23 0 1 cbr 500 ------- 0 0.0 2.0 26 26
- 0.231 1 2 cbr 500 ------- 0 0.0 2.0 16 16
r 0.231 0 1 cbr 500 ------- 0 0.0 2.0 25 25
+ 0.231 1 2 cbr 500 ------- 0 0.0 2.0 25 25
r 0.233188 1 2 cbr 500 ------- 0 0.0 2.0 14 14
+ 0.235 0 1 cbr 500 ------- 0 0.0 2.0 27 27
- 0.235 0 1 cbr 500 ------- 0 0.0 2.0 27 27
r 0.236 0 1 cbr 500 ------- 0 0.0 2.0 26 26
+ 0.236 1 2 cbr 500 ------- 0 0.0 2.0 26 26
- 0.238813 1 2 cbr 500 ------- 0 0.0 2.0 17 17
+ 0.24 0 1 cbr 500 ------- 0 0.0 2.0 28 28
- 0.24 0 1 cbr 500 ------- 0 0.0 2.0 28 28
r 0.241 1 2 cbr 500 ------- 0 0.0 2.0 15 15
r 0.241 0 1 cbr 500 ------- 0 0.0 2.0 27 27
+ 0.241 1 2 cbr 500 ------- 0 0.0 2.0 27 27
+ 0.245 0 1 cbr 500 ------- 0 0.0 2.0 29 29
- 0.245 0 1 cbr 500 ------- 0 0.0 2.0 29 29
r 0.246 0 1 cbr 500 ------- 0 0.0 2.0 28 28
+ 0.246 1 2 cbr 500 ------- 0 0.0 2.0 28 28
- 0.246625 1 2 cbr 500 ------- 0 0.0 2.0 18 18
r 0.248813 1 2 cbr 500 ------- 0 0.0 2.0 16 16
+ 0.25 0 1 cbr 500 ------- 0 0.0 2.0 30 30
- 0.25 0 1 cbr 500 ------- 0 0.0 2.0 30 30
r 0.251 0 1 cbr 500 ------- 0 0.0 2.0 29 29
+ 0.251 1 2 cbr 500 ------- 0 0.0 2.0 29 29
- 0.254437 1 2 cbr 500 ------- 0 0.0 2.0 19 19
+ 0.255 0 1 cbr 500 ------- 0 0.0 2.0 31 31
- 0.255 0 1 cbr 500 ------- 0 0.0 2.0 31 31
r 0.256 0 1 cbr 500 ------- 0 0.0 2.0 30 30
+ 0.256 1 2 cbr 500 ------- 0 0.0 2.0 30 30
r 0.256625 1 2 cbr 500 ------- 0 0.0 2.0 17 17
+ 0.26 0 1 cbr 500 ------- 0 0.0 2.0 32 32
- 0.26 0 1 cbr 500 ------- 0 0.0 2.0 32 32
r 0.261 0 1 cbr 500 ------- 0 0.0 2.0 31 31
+ 0.261 1 2 cbr 500 ------- 0 0.0 2.0 31 31
- 0.26225 1 2 cbr 500 ------- 0 0.0 2.0 20 20
r 0.264438 1 2 cbr 500 ------- 0 0.0 2.0 18 18
+ 0.265 0 1 cbr 500 ------- 0 0.0 2.0 33 33
- 0.265 0 1 cbr 500 ------- 0 0.0 2.0 33 33
r 0.266 0 1 cbr 500 ------- 0 0.0 2.0 32 32
+ 0.266 1 2 cbr 500 ------- 0 0.0 2.0 32 32
+ 0.27 0 1 cbr 500 ------- 0 0.0 2.0 34 34
- 0.27 0 1 cbr 500 ------- 0 0.0 2.0 34 34
- 0.270063 1 2 cbr 500 ------- 0 0.0 2.0 21 21
r 0.271 0 1 cbr 500 ------- 0 0.0 2.0 33 33
+ 0.271 1 2 cbr 500 ------- 0 0.0 2.0 33 33
r 0.27225 1 2 cbr 500 ------- 0 0.0 2.0 19 19
+ 0.275 0 1 cbr 500 ------- 0 0.0 2.0 35 35
- 0.275 0 1 cbr 500 ------- 0 0.0 2.0 35 35
r 0.276 0 1 cbr 500 ------- 0 0.0 2.0 34 34
+ 0.276 1 2 cbr 500 ------- 0 0.0 2.0 34 34
- 0.277875 1 2 cbr 500 ------- 0 0.0 2.0 22 22
+ 0.28 0 1 cbr 500 ------- 0 0.0 2.0 36 36
- 0.28 0 1 cbr 500 ------- 0 0.0 2.0 36 36
r 0.280063 1 2 cbr 500 ------- 0 0.0 2.0 20 20
r 0.281 0 1 cbr 500 ------- 0 0.0 2.0 35 35
+ 0.281 1 2 cbr 500 ------- 0 0.0 2.0 35 35
+ 0.285 0 1 cbr 500 ------- 0 0.0 2.0 37 37
- 0.285 0 1 cbr 500 ------- 0 0.0 2.0 37 37
- 0.285688 1 2 cbr 500 ------- 0 0.0 2.0 23 23
r 0.286 0 1 cbr 500 ------- 0 0.0 2.0 36 36
+ 0.286 1 2 cbr 500 ------- 0 0.0 2.0 36 36
r 0.287875 1 2 cbr 500 ------- 0 0.0 2.0 21 21
+ 0.29 0 1 cbr 500 ------- 0 0.0 2.0 38 38
- 0.29 0 1 cbr 500 ------- 0 0.0 2.0 38 38
r 0.291 0 1 cbr 500 ------- 0 0.0 2.0 37 37
+ 0.291 1 2 cbr 500 ------- 0 0.0 2.0 37 37
- 0.2935 1 2 cbr 500 ------- 0 0.0 2.0 24 24
+ 0.295 0 1 cbr 500 ------- 0 0.0 2.0 39 39
- 0.295 0 1 cbr 500 ------- 0 0.0 2.0 39 39
r 0.295688 1 2 cbr 500 ------- 0 0.0 2.0 22 22
r 0.296 0 1 cbr 500 ------- 0 0.0 2.0 38 38
+ 0.296 1 2 cbr 500 ------- 0 0.0 2.0 38 38
+ 0.3 0 1 cbr 500 ------- 0 0.0 2.0 40 40
- 0.3 0 1 cbr 500 ------- 0 0.0 2.0 40 40
r 0.301 0 1 cbr 500 ------- 0 0.0 2.0 39 39
+ 0.301 1 2 cbr 500 ------- 0 0.0 2.0 39 39
- 0.301313 1 2 cbr 500 ------- 0 0.0 2.0 25 25
r 0.3035 1 2 cbr 500 ------- 0 0.0 2.0 23 23
+ 0.305 0 1 cbr 500 ------- 0 0.0 2.0 41 41
- 0.305 0 1 cbr 500 ------- 0 0.0 2.0 41 41
r 0.306 0 1 cbr 500 ------- 0 0.0 2.0 40 40
+ 0.306 1 2 cbr 500 ------- 0 0.0 2.0 40 40
- 0.309125 1 2 cbr 500 ------- 0 0.0 2.0 26 26
+ 0.31 0 1 cbr 500 ------- 0 0.0 2.0 42 42
- 0.31 0 1 cbr 500 ------- 0 0.0 2.0 42 42
r 0.311 0 1 cbr 500 ------- 0 0.0 2.0 41 41
+ 0.311 1 2 cbr 500 ------- 0 0.0 2.0 41 41
r 0.311313 1 2 cbr 500 ------- 0 0.0 2.0 24 24
+ 0.315 0 1 cbr 500 ------- 0 0.0 2.0 43 43
- 0.315 0 1 cbr 500 ------- 0 0.0 2.0 43 43
r 0.316 0 1 cbr 500 ------- 0 0.0 2.0 42 42
+ 0.316 1 2 cbr 500 ------- 0 0.0 2.0 42 42
- 0.316938 1 2 cbr 500 ------- 0 0.0 2.0 27 27
r 0.319125 1 2 cbr 500 ------- 0 0.0 2.0 25 25
+ 0.32 0 1 cbr 500 ------- 0 0.0 2.0 44 44
- 0.32 0 1 cbr 500 ------- 0 0.0 2.0 44 44
r 0.321 0 1 cbr 500 ------- 0 0.0 2.0 43 43
+ 0.321 1 2 cbr 500 ------- 0 0.0 2.0 43 43
- 0.32475 1 2 cbr 500 ------- 0 0.0 2.0 28 28
+ 0.325 0 1 cbr 500 ------- 0 0.0 2.0 45 45
- 0.325 0 1 cbr 500 ------- 0 0.0 2.0 45 45
r 0.326 0 1 cbr 500 ------- 0 0.0 2.0 44 44
+ 0.326 1 2 cbr 500 ------- 0 0.0 2.0 44 44
r 0.326938 1 2 cbr 500 ------- 0 0.0 2.0 26 26
+ 0.33 0 1 cbr 500 ------- 0 0.0 2.0 46 46
- 0.33 0 1 cbr 500 ------- 0 0.0 2.0 46 46
r 0.331 0 1 cbr 500 ------- 0 0.0 2.0 45 45
+ 0.331 1 2 cbr 500 ------- 0 0.0 2.0 45 45
- 0.332563 1 2 cbr 500 ------- 0 0.0 2.0 29 29
r 0.33475 1 2 cbr 500 ------- 0 0.0 2.0 27 27
+ 0.335 0 1 cbr 500 ------- 0 0.0 2.0 47 47
- 0.335 0 1 cbr 500 ------- 0 0.0 2.0 47 47
r 0.336 0 1 cbr 500 ------- 0 0.0 2.0 46 46
+ 0.336 1 2 cbr 500 ------- 0 0.0 2.0 46 46
+ 0.34 0 1 cbr 500 ------- 0 0.0 2.0 48 48
- 0.34 0 1 cbr 500 ------- 0 0.0 2.0 48 48
- 0.340375 1 2 cbr 500 ------- 0 0.0 2.0 30 30
r 0.341 0 1 cbr 500 ------- 0 0.0 2.0 47 47
+ 0.341 1 2 cbr 500 ------- 0 0.0 2.0 47 47
r 0.342563 1 2 cbr 500 ------- 0 0.0 2.0 28 28
+ 0.345 0 1 cbr 500 ------- 0 0.0 2.0 49 49
- 0.345 0 1 cbr 500 ------- 0 0.0 2.0 49 49
r 0.346 0 1 cbr 500 ------- 0 0.0 2.0 48 48
+ 0.346 1 2 cbr 500 ------- 0 0.0 2.0 48 48
- 0.348188 1 2 cbr 500 ------- 0 0.0 2.0 31 31
+ 0.35 0 1 cbr 500 ------- 0 0.0 2.0 50 50
- 0.35 0 1 cbr 500 ------- 0 0.0 2.0 50 50
r 0.350375 1 2 cbr 500 ------- 0 0.0 2.0 29 29
r 0.351 0 1 cbr 500 ------- 0 0.0 2.0 49 49
+ 0.351 1 2 cbr 500 ------- 0 0.0 2.0 49 49
+ 0.355 0 1 cbr 500 ------- 0 0.0 2.0 51 51
- 0.355 0 1 cbr 500 ------- 0 0.0 2.0 51 51
- 0.356 1 2 cbr 500 ------- 0 0.0 2.0 32 32
r 0.356 0 1 cbr 500 ------- 0 0.0 2.0 50 50
+ 0.356 1 2 cbr 500 ------- 0 0.0 2.0 50 50
r 0.358188 1 2 cbr 500 ------- 0 0.0 2.0 30 30
+ 0.36 0 1 cbr 500 ------- 0 0.0 2.0 52 52
- 0.36 0 1 cbr 500 ------- 0 0.0 2.0 52 52
r 0.361 0 1 cbr 500 ------- 0 0.0 2.0 51 51
+ 0.361 1 2 cbr 500 ------- 0 0.0 2.0 51 51
- 0.363813 1 2 cbr 500 ------- 0 0.0 2.0 33 33
+ 0.365 0 1 cbr 500 ------- 0 0.0 2.0 53 53
- 0.365 0 1 cbr 500 ------- 0 0.0 2.0 53 53
r 0.366 1 2 cbr 500 ------- 0 0.0 2.0 31 31
r 0.366 0 1 cbr 500 ------- 0 0.0 2.0 52 52
+ 0.366 1 2 cbr 500 ------- 0 0.0 2.0 52 52
+ 0.37 0 1 cbr 500 ------- 0 0.0 2.0 54 54
- 0.37 0 1 cbr 500 ------- 0 0.0 2.0 54 54
r 0.371 0 1 cbr 500 ------- 0 0.0 2.0 53 53
+ 0.371 1 2 cbr 500 ------- 0 0.0 2.0 53 53
- 0.371625 1 2 cbr 500 ------- 0 0.0 2.0 34 34
r 0.373813 1 2 cbr 500 ------- 0 0.0 2.0 32 32
+ 0.375 0 1 cbr 500 ------- 0 0.0 2.0 55 55
- 0.375 0 1 cbr 500 ------- 0 0.0 2.0 55 55
r 0.376 0 1 cbr 500 ------- 0 0.0 2.0 54 54
+ 0.376 1 2 cbr 500 ------- 0 0.0 2.0 54 54
- 0.379438 1 2 cbr 500 ------- 0 0.0 2.0 35 35
+ 0.38 0 1 cbr 500 ------- 0 0.0 2.0 56 56
- 0.38 0 1 cbr 500 ------- 0 0.0 2.0 56 56
r 0.381 0 1 cbr 500 ------- 0 0.0 2.0 55 55
+ 0.381 1 2 cbr 500 ------- 0 0.0 2.0 55 55
r 0.381625 1 2 cbr 500 ------- 0 0.0 2.0 33 33
+ 0.385 0 1 cbr 500 ------- 0 0.0 2.0 57 57
- 0.385 0 1 cbr 500 ------- 0 0.0 2.0 57 57
r 0.386 0 1 cbr 500 ------- 0 0.0 2.0 56 56
+ 0.386 1 2 cbr 500 ------- 0 0.0 2.0 56 56
- 0.38725 1 2 cbr 500 ------- 0 0.0 2.0 36 36
r 0.389438 1 2 cbr 500 ------- 0 0.0 2.0 34 34
+ 0.39 0 1 cbr 500 ------- 0 0.0 2.0 58 58
- 0.39 0 1 cbr 500 ------- 0 0.0 2.0 58 58
r 0.391 0 1 cbr 500 ------- 0 0.0 2.0 57 57
+ 0.391 1 2 cbr 500 ------- 0 0.0 2.0 57 57
+ 0.395 0 1 cbr 500 ------- 0 0.0 2.0 59 59
- 0.395 0 1 cbr 500 ------- 0 0.0 2.0 59 59
- 0.395063 1 2 cbr 500 ------- 0 0.0 2.0 37 37
r 0.396 0 1 cbr 500 ------- 0 0.0 2.0 58 58
+ 0.396 1 2 cbr 500 ------- 0 0.0 2.0 58 58
r 0.39725 1 2 cbr 500 ------- 0 0.0 2.0 35 35
+ 0.4 0 1 cbr 500 ------- 0 0.0 2.0 60 60
- 0.4 0 1 cbr 500 ------- 0 0.0 2.0 60 60
r 0.401 0 1 cbr 500 ------- 0 0.0 2.0 59 59
+ 0.401 1 2 cbr 500 ------- 0 0.0 2.0 59 59
- 0.402875 1 2 cbr 500 ------- 0 0.0 2.0 38 38
+ 0.405 0 1 cbr 500 ------- 0 0.0 2.0 61 61
- 0.405 0 1 cbr 500 ------- 0 0.0 2.0 61 61
r 0.405063 1 2 cbr 500 ------- 0 0.0 2.0 36 36
r 0.406 0 1 cbr 500 ------- 0 0.0 2.0 60 60
+ 0.406 1 2 cbr 500 ------- 0 0.0 2.0 60 60
+ 0.41 0 1 cbr 500 ------- 0 0.0 2.0 62 62
- 0.41 0 1 cbr 500 ------- 0 0.0 2.0 62 62
- 0.410688 1 2 cbr 500 ------- 0 0.0 2.0 39 39
r 0.411 0 1 cbr 500 ------- 0 0.0 2.0 61 61
+ 0.411 1 2 cbr 500 ------- 0 0.0 2.0 61 61
r 0.412875 1 2 cbr 500 ------- 0 0.0 2.0 37 37
+ 0.415 0 1 cbr 500 ------- 0 0.0 2.0 63 63
- 0.415 0 1 cbr 500 ------- 0 0.0 2.0 63 63
r 0.416 0 1 cbr 500 ------- 0 0.0 2.0 62 62
+ 0.416 1 2 cbr 500 ------- 0 0.0 2.0 62 62
- 0.4185 1 2 cbr 500 ------- 0 0.0 2.0 40 40
+ 0.42 0 1 cbr 500 ------- 0 0.0 2.0 64 64
- 0.42 0 1 cbr 500 ------- 0 0.0 2.0 64 64
r 0.420688 1 2 cbr 500 ------- 0 0.0 2.0 38 38
r 0.421 0 1 cbr 500 ------- 0 0.0 2.0 63 63
+ 0.421 1 2 cbr 500 ------- 0 0.0 2.0 63 63
+ 0.425 0 1 cbr 500 ------- 0 0.0 2.0 65 65
- 0.425 0 1 cbr 500 ------- 0 0.0 2.0 65 65
r 0.426 0 1 cbr 500 ------- 0 0.0 2.0 64 64
+ 0.426 1 2 cbr 500 ------- 0 0.0 2.0 64 64
- 0.426313 1 2 cbr 500 ------- 0 0.0 2.0 41 41
r 0.4285 1 2 cbr 500 ------- 0 0.0 2.0 39 39
+ 0.43 0 1 cbr 500 ------- 0 0.0 2.0 66 66
- 0.43 0 1 cbr 500 ------- 0 0.0 2.0 66 66
r 0.431 0 1 cbr 500 ------- 0 0.0 2.0 65 65
+ 0.431 1 2 cbr 500 ------- 0 0.0 2.0 65 65
- 0.434125 1 2 cbr 500 ------- 0 0.0 2.0 42 42
+ 0.435 0 1 cbr 500 ------- 0 0.0 2.0 67 67
- 0.435 0 1 cbr 500 ------- 0 0.0 2.0 67 67
r 0.436 0 1 cbr 500 ------- 0 0.0 2.0 66 66
+ 0.436 1 2 cbr 500 ------- 0 0.0 2.0 66 66
r 0.436313 1 2 cbr 500 ------- 0 0.0 2.0 40 40
+ 0.44 0 1 cbr 500 ------- 0 0.0 2.0 68 68
- 0.44 0 1 cbr 500 ------- 0 0.0 2.0 68 68
r 0.441 0 1 cbr 500 ------- 0 0.0 2.0 67 67
+ 0.441 1 2 cbr 500 ------- 0 0.0 2.0 67 67
- 0.441938 1 2 cbr 500 ------- 0 0.0 2.0 43 43
r 0.444125 1 2 cbr 500 ------- 0 0.0 2.0 41 41
+ 0.445 0 1 cbr 500 ------- 0 0.0 2.0 69 69
- 0.445 0 1 cbr 500 ------- 0 0.0 2.0 69 69
r 0.446 0 1 cbr 500 ------- 0 0.0 2.0 68 68
+ 0.446 1 2 cbr 500 ------- 0 0.0 2.0 68 68
- 0.44975 1 2 cbr 500 ------- 0 0.0 2.0 44 44
+ 0.45 0 1 cbr 500 ------- 0 0.0 2.0 70 70
- 0.45 0 1 cbr 500 ------- 0 0.0 2.0 70 70
r 0.451 0 1 cbr 500 ------- 0 0.0 2.0 69 69
+ 0.451 1 2 cbr 500 ------- 0 0.0 2.0 69 69
r 0.451938 1 2 cbr 500 ------- 0 0.0 2.0 42 42
+ 0.455 0 1 cbr 500 ------- 0 0.0 2.0 71 71
- 0.455 0 1 cbr 500 ------- 0 0.0 2.0 71 71
r 0.456 0 1 cbr 500 ------- 0 0.0 2.0 70 70
+ 0.456 1 2 cbr 500 ------- 0 0.0 2.0 70 70
- 0.457563 1 2 cbr 500 ------- 0 0.0 2.0 45 45
r 0.45975 1 2 cbr 500 ------- 0 0.0 2.0 43 43
+ 0.46 0 1 cbr 500 ------- 0 0.0 2.0 72 72
- 0.46 0 1 cbr 500 ------- 0 0.0 2.0 72 72
r 0.461 0 1 cbr 500 ------- 0 0.0 2.0 71 71
+ 0.461 1 2 cbr 500 ------- 0 0.0 2.0 71 71
+ 0.465 0 1 cbr 500 ------- 0 0.0 2.0 73 73
- 0.465 0 1 cbr 500 ------- 0 0.0 2.0 73 73
- 0.465375 1 2 cbr 500 ------- 0 0.0 2.0 46 46
r 0.466 0 1 cbr 500 ------- 0 0.0 2.0 72 72
+ 0.466 1 2 cbr 500 ------- 0 0.0 2.0 72 72
r 0.467563 1 2 cbr 500 ------- 0 0.0 2.0 44 44
+ 0.47 0 1 cbr 500 ------- 0 0.0 2.0 74 74
- 0.47 0 1 cbr 500 ------- 0 0.0 2.0 74 74
r 0.471 0 1 cbr 500 ------- 0 0.0 2.0 73 73
+ 0.471 1 2 cbr 500 ------- 0 0.0 2.0 73 73
- 0.473188 1 2 cbr 500 ------- 0 0.0 2.0 47 47
+ 0.475 0 1 cbr 500 ------- 0 0.0 2.0 75 75
- 0.475 0 1 cbr 500 ------- 0 0.0 2.0 75 75
r 0.475375 1 2 cbr 500 ------- 0 0.0 2.0 45 45
r 0.476 0 1 cbr 500 ------- 0 0.0 2.0 74 74
+ 0.476 1 2 cbr 500 ------- 0 0.0 2.0 74 74
+ 0.48 0 1 cbr 500 ------- 0 0.0 2.0 76 76
- 0.48 0 1 cbr 500 ------- 0 0.0 2.0 76 76
- 0.481 1 2 cbr 500 ------- 0 0.0 2.0 48 48
r 0.481 0 1 cbr 500 ------- 0 0.0 2.0 75 75
+ 0.481 1 2 cbr 500 ------- 0 0.0 2.0 75 75
r 0.483188 1 2 cbr 500 ------- 0 0.0 2.0 46 46
+ 0.485 0 1 cbr 500 ------- 0 0.0 2.0 77 77
- 0.485 0 1 cbr 500 ------- 0 0.0 2.0 77 77
r 0.486 0 1 cbr 500 ------- 0 0.0 2.0 76 76
+ 0.486 1 2 cbr 500 ------- 0 0.0 2.0 76 76
- 0.488813 1 2 cbr 500 ------- 0 0.0 2.0 49 49
+ 0.49 0 1 cbr 500 ------- 0 0.0 2.0 78 78
- 0.49 0 1 cbr 500 ------- 0 0.0 2.0 78 78
r 0.491 1 2 cbr 500 ------- 0 0.0 2.0 47 47
r 0.491 0 1 cbr 500 ------- 0 0.0 2.0 77 77
+ 0.491 1 2 cbr 500 ------- 0 0.0 2.0 77 77
+ 0.495 0 1 cbr 500 ------- 0 0.0 2.0 79 79
- 0.495 0 1 cbr 500 ------- 0 0.0 2.0 79 79
r 0.496 0 1 cbr 500 ------- 0 0.0 2.0 78 78
+ 0.496 1 2 cbr 500 ------- 0 0.0 2.0 78 78
- 0.496625 1 2 cbr 500 ------- 0 0.0 2.0 50 50
r 0.498813 1 2 cbr 500 ------- 0 0.0 2.0 48 48
+ 0.5 0 1 cbr 500 ------- 0 0.0 2.0 80 80
- 0.5 0 1 cbr 500 ------- 0 0.0 2.0 80 80
r 0.501 0 1 cbr 500 ------- 0 0.0 2.0 79 79
+ 0.501 1 2 cbr 500 ------- 0 0.0 2.0 79 79
- 0.504438 1 2 cbr 500 ------- 0 0.0 2.0 51 51
+ 0.505 0 1 cbr 500 ------- 0 0.0 2.0 81 81
- 0.505 0 1 cbr 500 ------- 0 0.0 2.0 81 81
r 0.506 0 1 cbr 500 ------- 0 0.0 2.0 80 80
+ 0.506 1 2 cbr 500 ------- 0 0.0 2.0 80 80
r 0.506625 1 2 cbr 500 ------- 0 0.0 2.0 49 49
+ 0.51 0 1 cbr 500 ------- 0 0.0 2.0 82 82
- 0.51 0 1 cbr 500 ------- 0 0.0 2.0 82 82
r 0.511 0 1 cbr 500 ------- 0 0.0 2.0 81 81
+ 0.511 1 2 cbr 500 ------- 0 0.0 2.0 81 81
- 0.51225 1 2 cbr 500 ------- 0 0.0 2.0 52 52
r 0.514438 1 2 cbr 500 ------- 0 0.0 2.0 50 50
+ 0.515 0 1 cbr 500 ------- 0 0.0 2.0 83 83
- 0.515 0 1 cbr 500 ------- 0 0.0 2.0 83 83
r 0.516 0 1 cbr 500 ------- 0 0.0 2.0 82 82
+ 0.516 1 2 cbr 500 ------- 0 0.0 2.0 82 82
+ 0.52 0 1 cbr 500 ------- 0 0.0 2.0 84 84
- 0.52 0 1 cbr 500 ------- 0 0.0 2.0 84 84
- 0.520063 1 2 cbr 500 ------- 0 0.0 2.0 53 53
r 0.521 0 1 cbr 500 ------- 0 0.0 2.0 83 83
+ 0.521 1 2 cbr 500 ------- 0 0.0 2.0 83 83
r 0.52225 1 2 cbr 500 ------- 0 0.0 2.0 51 51
+ 0.525 0 1 cbr 500 ------- 0 0.0 2.0 85 85
- 0.525 0 1 cbr 500 ------- 0 0.0 2.0 85 85
r 0.526 0 1 cbr 500 ------- 0 0.0 2.0 84 84
+ 0.526 1 2 cbr 500 ------- 0 0.0 2.0 84 84
- 0.527875 1 2 cbr 500 ------- 0 0.0 2.0 54 54
+ 0.53 0 1 cbr 500 ------- 0 0.0 2.0 86 86
- 0.53 0 1 cbr 500 ------- 0 0.0 2.0 86 86
r 0.530063 1 2 cbr 500 ------- 0 0.0 2.0 52 52
r 0.531 0 1 cbr 500 ------- 0 0.0 2.0 85 85
+ 0.531 1 2 cbr 500 ------- 0 0.0 2.0 85 85
+ 0.535 0 1 cbr 500 ------- 0 0.0 2.0 87 87
- 0.535 0 1 cbr 500 ------- 0 0.0 2.0 87 87
- 0.535688 1 2 cbr 500 ------- 0 0.0 2.0 55 55
r 0.536 0 1 cbr 500 ------- 0 0.0 2.0 86 86
+ 0.536 1 2 cbr 500 ------- 0 0.0 2.0 86 86
r 0.537875 1 2 cbr 500 ------- 0 0.0 2.0 53 53
+ 0.54 0 1 cbr 500 ------- 0 0.0 2.0 88 88
- 0.54 0 1 cbr 500 ------- 0 0.0 2.0 88 88
r 0.541 0 1 cbr 500 ------- 0 0.0 2.0 87 87
+ 0.541 1 2 cbr 500 ------- 0 0.0 2.0 87 87
- 0.5435 1 2 cbr 500 ------- 0 0.0 2.0 56 56
+ 0.545 0 1 cbr 500 ------- 0 0.0 2.0 89 89
- 0.545 0 1 cbr 500 ------- 0 0.0 2.0 89 89
r 0.545688 1 2 cbr 500 ------- 0 0.0 2.0 54 54
r 0.546 0 1 cbr 500 ------- 0 0.0 2.0 88 88
+ 0.546 1 2 cbr 500 ------- 0 0.0 2.0 88 88
+ 0.55 0 1 cbr 500 ------- 0 0.0 2.0 90 90
- 0.55 0 1 cbr 500 ------- 0 0.0 2.0 90 90
r 0.551 0 1 cbr 500 ------- 0 0.0 2.0 89 89
+ 0.551 1 2 cbr 500 ------- 0 0.0 2.0 89 89
- 0.551313 1 2 cbr 500 ------- 0 0.0 2.0 57 57
r 0.5535 1 2 cbr 500 ------- 0 0.0 2.0 55 55
+ 0.555 0 1 cbr 500 ------- 0 0.0 2.0 91 91
- 0.555 0 1 cbr 500 ------- 0 0.0 2.0 91 91
r 0.556 0 1 cbr 500 ------- 0 0.0 2.0 90 90
+ 0.556 1 2 cbr 500 ------- 0 0.0 2.0 90 90
- 0.559125 1 2 cbr 500 ------- 0 0.0 2.0 58 58
+ 0.56 0 1 cbr 500 ------- 0 0.0 2.0 92 92
- 0.56 0 1 cbr 500 ------- 0 0.0 2.0 92 92
r 0.561 0 1 cbr 500 ------- 0 0.0 2.0 91 91
+ 0.561 1 2 cbr 500 ------- 0 0.0 2.0 91 91
r 0.561313 1 2 cbr 500 ------- 0 0.0 2.0 56 56
+ 0.565 0 1 cbr 500 ------- 0 0.0 2.0 93 93
- 0.565 0 1 cbr 500 ------- 0 0.0 2.0 93 93
r 0.566 0 1 cbr 500 ------- 0 0.0 2.0 92 92
+ 0.566 1 2 cbr 500 ------- 0 0.0 2.0 92 92
- 0.566938 1 2 cbr 500 ------- 0 0.0 2.0 59 59
r 0.569125 1 2 cbr 500 ------- 0 0.0 2.0 57 57
+ 0.57 0 1 cbr 500 ------- 0 0.0 2.0 94 94
- 0.57 0 1 cbr 500 ------- 0 0.0 2.0 94 94
r 0.571 0 1 cbr 500 ------- 0 0.0 2.0 93 93
+ 0.571 1 2 cbr 500 ------- 0 0.0 2.0 93 93
- 0.57475 1 2 cbr 500 ------- 0 0.0 2.0 60 60
+ 0.575 0 1 cbr 500 ------- 0 0.0 2.0 95 95
- 0.575 0 1 cbr 500 ------- 0 0.0 2.0 95 95
r 0.576 0 1 cbr 500 ------- 0 0.0 2.0 94 94
+ 0.576 1 2 cbr 500 ------- 0 0.0 2.0 94 94
r 0.576938 1 2 cbr 500 ------- 0 0.0 2.0 58 58
+ 0.58 0 1 cbr 500 ------- 0 0.0 2.0 96 96
- 0.58 0 1 cbr 500 ------- 0 0.0 2.0 96 96
r 0.581 0 1 cbr 500 ------- 0 0.0 2.0 95 95
+ 0.581 1 2 cbr 500 ------- 0 0.0 2.0 95 95
- 0.582563 1 2 cbr 500 ------- 0 0.0 2.0 61 61
r 0.58475 1 2 cbr 500 ------- 0 0.0 2.0 59 59
+ 0.585 0 1 cbr 500 ------- 0 0.0 2.0 97 97
- 0.585 0 1 cbr 500 ------- 0 0.0 2.0 97 97
r 0.586 0 1 cbr 500 ------- 0 0.0 2.0 96 96
+ 0.586 1 2 cbr 500 ------- 0 0.0 2.0 96 96
+ 0.59 0 1 cbr 500 ------- 0 0.0 2.0 98 98
- 0.59 0 1 cbr 500 ------- 0 0.0 2.0 98 98
- 0.590375 1 2 cbr 500 ------- 0 0.0 2.0 62 62
r 0.591 0 1 cbr 500 ------- 0 0.0 2.0 97 97
+ 0.591 1 2 cbr 500 ------- 0 0.0 2.0 97 97
r 0.592563 1 2 cbr 500 ------- 0 0.0 2.0 60 60
+ 0.595 0 1 cbr 500 ------- 0 0.0 2.0 99 99
- 0.595 0 1 cbr 500 ------- 0 0.0 2.0 99 99
r 0.596 0 1 cbr 500 ------- 0 0.0 2.0 98 98
+ 0.596 1 2 cbr 500 ------- 0 0.0 2.0 98 98
- 0.598188 1 2 cbr 500 ------- 0 0.0 2.0 63 63
+ 0.6 0 1 cbr 500 ------- 0 0.0 2.0 100 100
- 0.6 0 1 cbr 500 ------- 0 0.0 2.0 100 100
r 0.600375 1 2 cbr 500 ------- 0 0.0 2.0 61 61
r 0.601 0 1 cbr 500 ------- 0 0.0 2.0 99 99
+ 0.601 1 2 cbr 500 ------- 0 0.0 2.0 99 99
+ 0.605 0 1 cbr 500 ------- 0 0.0 2.0 101 101
- 0.605 0 1 cbr 500 ------- 0 0.0 2.0 101 101
- 0.606 1 2 cbr 500 ------- 0 0.0 2.0 64 64
r 0.606 0 1 cbr 500 ------- 0 0.0 2.0 100 100
+ 0.606 1 2 cbr 500 ------- 0 0.0 2.0 100 100
r 0.608188 1 2 cbr 500 ------- 0 0.0 2.0 62 62
+ 0.61 0 1 cbr 500 ------- 0 0.0 2.0 102 102
- 0.61 0 1 cbr 500 ------- 0 0.0 2.0 102 102
r 0.611 0 1 cbr 500 ------- 0 0.0 2.0 101 101
+ 0.611 1 2 cbr 500 ------- 0 0.0 2.0 101 101
- 0.613813 1 2 cbr 500 ------- 0 0.0 2.0 65 65
+ 0.615 0 1 cbr 500 ------- 0 0.0 2.0 103 103
- 0.615 0 1 cbr 500 ------- 0 0.0 2.0 103 103
r 0.616 1 2 cbr 500 ------- 0 0.0 2.0 63 63
r 0.616 0 1 cbr 500 ------- 0 0.0 2.0 102 102
+ 0.616 1 2 cbr 500 ------- 0 0.0 2.0 102 102
+ 0.62 0 1 cbr 500 ------- 0 0.0 2.0 104 104
- 0.62 0 1 cbr 500 ------- 0 0.0 2.0 104 104
r 0.621 0 1 cbr 500 ------- 0 0.0 2.0 103 103
+ 0.621 1 2 cbr 500 ------- 0 0.0 2.0 103 103
- 0.621625 1 2 cbr 500 ------- 0 0.0 2.0 66 66
r 0.623813 1 2 cbr 500 ------- 0 0.0 2.0 64 64
+ 0.625 0 1 cbr 500 ------- 0 0.0 2.0 105 105
- 0.625 0 1 cbr 500 ------- 0 0.0 2.0 105 105
r 0.626 0 1 cbr 500 ------- 0 0.0 2.0 104 104
+ 0.626 1 2 cbr 500 ------- 0 0.0 2.0 104 104
- 0.629438 1 2 cbr 500 ------- 0 0.0 2.0 67 67
+ 0.63 0 1 cbr 500 ------- 0 0.0 2.0 106 106
- 0.63 0 1 cbr 500 ------- 0 0.0 2.0 106 106
r 0.631 0 1 cbr 500 ------- 0 0.0 2.0 105 105
+ 0.631 1 2 cbr 500 ------- 0 0.0 2.0 105 105
r 0.631625 1 2 cbr 500 ------- 0 0.0 2.0 65 65
+ 0.635 0 1 cbr 500 ------- 0 0.0 2.0 107 107
- 0.635 0 1 cbr 500 ------- 0 0.0 2.0 107 107
r 0.636 0 1 cbr 500 ------- 0 0.0 2.0 106 106
+ 0.636 1 2 cbr 500 ------- 0 0.0 2.0 106 106
- 0.63725 1 2 cbr 500 ------- 0 0.0 2.0 68 68
r 0.639438 1 2 cbr 500 ------- 0 0.0 2.0 66 66
+ 0.64 0 1 cbr 500 ------- 0 0.0 2.0 108 108
- 0.64 0 1 cbr 500 ------- 0 0.0 2.0 108 108
r 0.641 0 1 cbr 500 ------- 0 0.0 2.0 107 107
+ 0.641 1 2 cbr 500 ------- 0 0.0 2.0 107 107
+ 0.645 0 1 cbr 500 ------- 0 0.0 2.0 109 109
- 0.645 0 1 cbr 500 ------- 0 0.0 2.0 109 109
- 0.645063 1 2 cbr 500 ------- 0 0.0 2.0 69 69
r 0.646 0 1 cbr 500 ------- 0 0.0 2.0 108 108
+ 0.646 1 2 cbr 500 ------- 0 0.0 2.0 108 108
r 0.64725 1 2 cbr 500 ------- 0 0.0 2.0 67 67
+ 0.65 0 1 cbr 500 ------- 0 0.0 2.0 110 110
- 0.65 0 1 cbr 500 ------- 0 0.0 2.0 110 110
r 0.651 0 1 cbr 500 ------- 0 0.0 2.0 109 109
+ 0.651 1 2 cbr 500 ------- 0 0.0 2.0 109 109
- 0.652875 1 2 cbr 500 ------- 0 0.0 2.0 70 70
+ 0.655 0 1 cbr 500 ------- 0 0.0 2.0 111 111
- 0.655 0 1 cbr 500 ------- 0 0.0 2.0 111 111
r 0.655063 1 2 cbr 500 ------- 0 0.0 2.0 68 68
r 0.656 0 1 cbr 500 ------- 0 0.0 2.0 110 110
+ 0.656 1 2 cbr 500 ------- 0 0.0 2.0 110 110
+ 0.66 0 1 cbr 500 ------- 0 0.0 2.0 112 112
- 0.66 0 1 cbr 500 ------- 0 0.0 2.0 112 112
- 0.660688 1 2 cbr 500 ------- 0 0.0 2.0 71 71
r 0.661 0 1 cbr 500 ------- 0 0.0 2.0 111 111
+ 0.661 1 2 cbr 500 ------- 0 0.0 2.0 111 111
r 0.662875 1 2 cbr 500 ------- 0 0.0 2.0 69 69
+ 0.665 0 1 cbr 500 ------- 0 0.0 2.0 113 113
- 0.665 0 1 cbr 500 ------- 0 0.0 2.0 113 113
r 0.666 0 1 cbr 500 ------- 0 0.0 2.0 112 112
+ 0.666 1 2 cbr 500 ------- 0 0.0 2.0 112 112
- 0.6685 1 2 cbr 500 ------- 0 0.0 2.0 72 72
+ 0.67 0 1 cbr 500 ------- 0 0.0 2.0 114 114
- 0.67 0 1 cbr 500 ------- 0 0.0 2.0 114 114
r 0.670688 1 2 cbr 500 ------- 0 0.0 2.0 70 70
r 0.671 0 1 cbr 500 ------- 0 0.0 2.0 113 113
+ 0.671 1 2 cbr 500 ------- 0 0.0 2.0 113 113
+ 0.675 0 1 cbr 500 ------- 0 0.0 2.0 115 115
- 0.675 0 1 cbr 500 ------- 0 0.0 2.0 115 115
r 0.676 0 1 cbr 500 ------- 0 0.0 2.0 114 114
+ 0.676 1 2 cbr 500 ------- 0 0.0 2.0 114 114
- 0.676313 1 2 cbr 500 ------- 0 0.0 2.0 73 73
r 0.6785 1 2 cbr 500 ------- 0 0.0 2.0 71 71
+ 0.68 0 1 cbr 500 ------- 0 0.0 2.0 116 116
- 0.68 0 1 cbr 500 ------- 0 0.0 2.0 116 116
r 0.681 0 1 cbr 500 ------- 0 0.0 2.0 115 115
+ 0.681 1 2 cbr 500 ------- 0 0.0 2.0 115 115
- 0.684125 1 2 cbr 500 ------- 0 0.0 2.0 74 74
+ 0.685 0 1 cbr 500 ------- 0 0.0 2.0 117 117
- 0.685 0 1 cbr 500 ------- 0 0.0 2.0 117 117
r 0.686 0 1 cbr 500 ------- 0 0.0 2.0 116 116
+ 0.686 1 2 cbr 500 ------- 0 0.0 2.0 116 116
r 0.686313 1 2 cbr 500 ------- 0 0.0 2.0 72 72
+ 0.69 0 1 cbr 500 ------- 0 0.0 2.0 118 118
- 0.69 0 1 cbr 500 ------- 0 0.0 2.0 118 118
r 0.691 0 1 cbr 500 ------- 0 0.0 2.0 117 117
+ 0.691 1 2 cbr 500 ------- 0 0.0 2.0 117 117
- 0.691938 1 2 cbr 500 ------- 0 0.0 2.0 75 75
r 0.694125 1 2 cbr 500 ------- 0 0.0 2.0 73 73
+ 0.695 0 1 cbr 500 ------- 0 0.0 2.0 119 119
- 0.695 0 1 cbr 500 ------- 0 0.0 2.0 119 119
r 0.696 0 1 cbr 500 ------- 0 0.0 2.0 118 118
+ 0.696 1 2 cbr 500 ------- 0 0.0 2.0 118 118
- 0.69975 1 2 cbr 500 ------- 0 0.0 2.0 76 76
+ 0.7 0 1 cbr 500 ------- 0 0.0 2.0 120 120
- 0.7 0 1 cbr 500 ------- 0 0.0 2.0 120 120
r 0.701 0 1 cbr 500 ------- 0 0.0 2.0 119 119
+ 0.701 1 2 cbr 500 ------- 0 0.0 2.0 119 119
r 0.701938 1 2 cbr 500 ------- 0 0.0 2.0 74 74
+ 0.705 0 1 cbr 500 ------- 0 0.0 2.0 121 121
- 0.705 0 1 cbr 500 ------- 0 0.0 2.0 121 121
r 0.706 0 1 cbr 500 ------- 0 0.0 2.0 120 120
+ 0.706 1 2 cbr 500 ------- 0 0.0 2.0 120 120
- 0.707563 1 2 cbr 500 ------- 0 0.0 2.0 77 77
r 0.70975 1 2 cbr 500 ------- 0 0.0 2.0 75 75
+ 0.71 0 1 cbr 500 ------- 0 0.0 2.0 122 122
- 0.71 0 1 cbr 500 ------- 0 0.0 2.0 122 122
r 0.711 0 1 cbr 500 ------- 0 0.0 2.0 121 121
+ 0.711 1 2 cbr 500 ------- 0 0.0 2.0 121 121
+ 0.715 0 1 cbr 500 ------- 0 0.0 2.0 123 123
- 0.715 0 1 cbr 500 ------- 0 0.0 2.0 123 123
- 0.715375 1 2 cbr 500 ------- 0 0.0 2.0 78 78
r 0.716 0 1 cbr 500 ------- 0 0.0 2.0 122 122
+ 0.716 1 2 cbr 500 ------- 0 0.0 2.0 122 122
r 0.717563 1 2 cbr 500 ------- 0 0.0 2.0 76 76
+ 0.72 0 1 cbr 500 ------- 0 0.0 2.0 124 124
- 0.72 0 1 cbr 500 ------- 0 0.0 2.0 124 124
r 0.721 0 1 cbr 500 ------- 0 0.0 2.0 123 123
+ 0.721 1 2 cbr 500 ------- 0 0.0 2.0 123 123
- 0.723188 1 2 cbr 500 ------- 0 0.0 2.0 79 79
+ 0.725 0 1 cbr 500 ------- 0 0.0 2.0 125 125
- 0.725 0 1 cbr 500 ------- 0 0.0 2.0 125 125
r 0.725375 1 2 cbr 500 ------- 0 0.0 2.0 77 77
r 0.726 0 1 cbr 500 ------- 0 0.0 2.0 124 124
+ 0.726 1 2 cbr 500 ------- 0 0.0 2.0 124 124
+ 0.73 0 1 cbr 500 ------- 0 0.0 2.0 126 126
- 0.73 0 1 cbr 500 ------- 0 0.0 2.0 126 126
- 0.731 1 2 cbr 500 ------- 0 0.0 2.0 80 80
r 0.731 0 1 cbr 500 ------- 0 0.0 2.0 125 125
+ 0.731 1 2 cbr 500 ------- 0 0.0 2.0 125 125
r 0.733188 1 2 cbr 500 ------- 0 0.0 2.0 78 78
+ 0.735 0 1 cbr 500 ------- 0 0.0 2.0 127 127
- 0.735 0 1 cbr 500 ------- 0 0.0 2.0 127 127
r 0.736 0 1 cbr 500 ------- 0 0.0 2.0 126 126
+ 0.736 1 2 cbr 500 ------- 0 0.0 2.0 126 126
- 0.738813 1 2 cbr 500 ------- 0 0.0 2.0 81 81
+ 0.74 0 1 cbr 500 ------- 0 0.0 2.0 128 128
- 0.74 0 1 cbr 500 ------- 0 0.0 2.0 128 128