h 0.1 0 6 tcp 40 ------- 0 0.0 5.0 0 0
+ 0.11 0 6 tcp 40 ------- 0 0.0 5.0 0 0
- 0.11 0 6 tcp 40 ------- 0 0.0 5.0 0 0
r 0.120009 6 4 tcp 40 ------- 0 0.0 5.0 0 0
+ 0.120009 4 5 tcp 40 ------- 0 0.0 5.0 0 0
- 0.120009 4 5 tcp 40 ------- 0 0.0 5.0 0 0
r 0.121329 4 5 tcp 40 ------- 0 0.0 5.0 0 0
+ 0.121329 5 4 ack 40 ------- 0 5.0 0.0 0 1
- 0.121329 5 4 ack 40 ------- 0 5.0 0.0 0 1
r 0.122649 5 4 ack 40 ------- 0 5.0 0.0 0 1
h 0.122649 4 6 ack 40 ------- 0 5.0 0.0 0 1
+ 0.132649 4 6 ack 40 ------- 0 5.0 0.0 0 1
- 0.132649 4 6 ack 40 ------- 0 5.0 0.0 0 1
r 0.142658 6 0 ack 40 ------- 0 5.0 0.0 0 1
h 0.142658 0 6 tcp 1040 ------- 0 0.0 5.0 1 2
h 0.142658 0 6 tcp 1040 ------- 0 0.0 5.0 2 3
+ 0.152658 0 6 tcp 1040 ------- 0 0.0 5.0 1 2
- 0.152658 0 6 tcp 1040 ------- 0 0.0 5.0 1 2
+ 0.152658 0 6 tcp 1040 ------- 0 0.0 5.0 2 3
- 0.152744 0 6 tcp 1040 ------- 0 0.0 5.0 2 3
r 0.162747 6 4 tcp 1040 ------- 0 0.0 5.0 1 2
+ 0.162747 4 5 tcp 1040 ------- 0 0.0 5.0 1 2
- 0.162747 4 5 tcp 1040 ------- 0 0.0 5.0 1 2
r 0.162832 6 4 tcp 1040 ------- 0 0.0 5.0 2 3
+ 0.162832 4 5 tcp 1040 ------- 0 0.0 5.0 2 3
- 0.171067 4 5 tcp 1040 ------- 0 0.0 5.0 2 3
r 0.172067 4 5 tcp 1040 ------- 0 0.0 5.0 1 2
r 0.180387 4 5 tcp 1040 ------- 0 0.0 5.0 2 3
+ 0.180387 5 4 ack 40 ------- 0 5.0 0.0 2 4
- 0.180387 5 4 ack 40 ------- 0 5.0 0.0 2 4
r 0.181707 5 4 ack 40 ------- 0 5.0 0.0 2 4
h 0.181707 4 6 ack 40 ------- 0 5.0 0.0 2 4
+ 0.191707 4 6 ack 40 ------- 0 5.0 0.0 2 4
- 0.191707 4 6 ack 40 ------- 0 5.0 0.0 2 4
+ 0.2 2 3 tcp 40 ------- 0 2.0 3.0 0 5
- 0.2 2 3 tcp 40 ------- 0 2.0 3.0 0 5
r 0.20132 2 3 tcp 40 ------- 0 2.0 3.0 0 5
+ 0.20132 3 2 ack 40 ------- 0 3.0 2.0 0 6
- 0.20132 3 2 ack 40 ------- 0 3.0 2.0 0 6
r 0.201716 6 0 ack 40 ------- 0 5.0 0.0 2 4
h 0.201716 0 6 tcp 1040 ------- 0 0.0 5.0 3 7
h 0.201716 0 6 tcp 1040 ------- 0 0.0 5.0 4 8
h 0.201716 0 6 tcp 1040 ------- 0 0.0 5.0 5 9
r 0.20264 3 2 ack 40 ------- 0 3.0 2.0 0 6
+ 0.20264 2 3 tcp 1040 ------- 0 2.0 3.0 1 10
- 0.20264 2 3 tcp 1040 ------- 0 2.0 3.0 1 10
+ 0.20264 2 3 tcp 1040 ------- 0 2.0 3.0 2 11
- 0.21096 2 3 tcp 1040 ------- 0 2.0 3.0 2 11
+ 0.211716 0 6 tcp 1040 ------- 0 0.0 5.0 3 7
- 0.211716 0 6 tcp 1040 ------- 0 0.0 5.0 3 7
+ 0.211716 0 6 tcp 1040 ------- 0 0.0 5.0 4 8
+ 0.211716 0 6 tcp 1040 ------- 0 0.0 5.0 5 9
- 0.211801 0 6 tcp 1040 ------- 0 0.0 5.0 4 8
- 0.211886 0 6 tcp 1040 ------- 0 0.0 5.0 5 9
r 0.21196 2 3 tcp 1040 ------- 0 2.0 3.0 1 10
+ 0.21196 3 2 ack 40 ------- 0 3.0 2.0 1 12
- 0.21196 3 2 ack 40 ------- 0 3.0 2.0 1 12
r 0.21328 3 2 ack 40 ------- 0 3.0 2.0 1 12
+ 0.21328 2 3 tcp 1040 ------- 0 2.0 3.0 3 13
+ 0.21328 2 3 tcp 1040 ------- 0 2.0 3.0 4 14
- 0.21928 2 3 tcp 1040 ------- 0 2.0 3.0 3 13
r 0.22028 2 3 tcp 1040 ------- 0 2.0 3.0 2 11
+ 0.22028 3 2 ack 40 ------- 0 3.0 2.0 2 15
- 0.22028 3 2 ack 40 ------- 0 3.0 2.0 2 15
r 0.2216 3 2 ack 40 ------- 0 3.0 2.0 2 15
+ 0.2216 2 3 tcp 1040 ------- 0 2.0 3.0 5 16
+ 0.2216 2 3 tcp 1040 ------- 0 2.0 3.0 6 17
r 0.221804 6 4 tcp 1040 ------- 0 0.0 5.0 3 7
+ 0.221804 4 5 tcp 1040 ------- 0 0.0 5.0 3 7
- 0.221804 4 5 tcp 1040 ------- 0 0.0 5.0 3 7
r 0.221889 6 4 tcp 1040 ------- 0 0.0 5.0 4 8
+ 0.221889 4 5 tcp 1040 ------- 0 0.0 5.0 4 8
r 0.221975 6 4 tcp 1040 ------- 0 0.0 5.0 5 9
+ 0.221975 4 5 tcp 1040 ------- 0 0.0 5.0 5 9
- 0.2276 2 3 tcp 1040 ------- 0 2.0 3.0 4 14
r 0.2286 2 3 tcp 1040 ------- 0 2.0 3.0 3 13
+ 0.2286 3 2 ack 40 ------- 0 3.0 2.0 3 18
- 0.2286 3 2 ack 40 ------- 0 3.0 2.0 3 18
r 0.22992 3 2 ack 40 ------- 0 3.0 2.0 3 18
+ 0.22992 2 3 tcp 1040 ------- 0 2.0 3.0 7 19
+ 0.22992 2 3 tcp 1040 ------- 0 2.0 3.0 8 20
- 0.230124 4 5 tcp 1040 ------- 0 0.0 5.0 4 8
r 0.231124 4 5 tcp 1040 ------- 0 0.0 5.0 3 7
- 0.23592 2 3 tcp 1040 ------- 0 2.0 3.0 5 16
r 0.23692 2 3 tcp 1040 ------- 0 2.0 3.0 4 14
+ 0.23692 3 2 ack 40 ------- 0 3.0 2.0 4 21
- 0.23692 3 2 ack 40 ------- 0 3.0 2.0 4 21
r 0.23824 3 2 ack 40 ------- 0 3.0 2.0 4 21
+ 0.23824 2 3 tcp 1040 ------- 0 2.0 3.0 9 22
+ 0.23824 2 3 tcp 1040 ------- 0 2.0 3.0 10 23
d 0.23824 2 3 tcp 1040 ------- 0 2.0 3.0 10 23
- 0.238444 4 5 tcp 1040 ------- 0 0.0 5.0 5 9
r 0.239444 4 5 tcp 1040 ------- 0 0.0 5.0 4 8
+ 0.239444 5 4 ack 40 ------- 0 5.0 0.0 4 24
- 0.239444 5 4 ack 40 ------- 0 5.0 0.0 4 24
r 0.240764 5 4 ack 40 ------- 0 5.0 0.0 4 24
h 0.240764 4 6 ack 40 ------- 0 5.0 0.0 4 24
- 0.24424 2 3 tcp 1040 ------- 0 2.0 3.0 6 17
r 0.24524 2 3 tcp 1040 ------- 0 2.0 3.0 5 16
+ 0.24524 3 2 ack 40 ------- 0 3.0 2.0 5 25
- 0.24524 3 2 ack 40 ------- 0 3.0 2.0 5 25
r 0.24656 3 2 ack 40 ------- 0 3.0 2.0 5 25
+ 0.24656 2 3 tcp 1040 ------- 0 2.0 3.0 11 26
+ 0.24656 2 3 tcp 1040 ------- 0 2.0 3.0 12 27
d 0.24656 2 3 tcp 1040 ------- 0 2.0 3.0 12 27
r 0.247764 4 5 tcp 1040 ------- 0 0.0 5.0 5 9
+ 0.250764 4 6 ack 40 ------- 0 5.0 0.0 4 24
- 0.250764 4 6 ack 40 ------- 0 5.0 0.0 4 24
- 0.25256 2 3 tcp 1040 ------- 0 2.0 3.0 7 19
r 0.25356 2 3 tcp 1040 ------- 0 2.0 3.0 6 17
+ 0.25356 3 2 ack 40 ------- 0 3.0 2.0 6 28
- 0.25356 3 2 ack 40 ------- 0 3.0 2.0 6 28
r 0.25488 3 2 ack 40 ------- 0 3.0 2.0 6 28
+ 0.25488 2 3 tcp 1040 ------- 0 2.0 3.0 13 29
+ 0.25488 2 3 tcp 1040 ------- 0 2.0 3.0 14 30
d 0.25488 2 3 tcp 1040 ------- 0 2.0 3.0 14 30
r 0.260773 6 0 ack 40 ------- 0 5.0 0.0 4 24
h 0.260773 0 6 tcp 1040 ------- 0 0.0 5.0 6 31
h 0.260773 0 6 tcp 1040 ------- 0 0.0 5.0 7 32
h 0.260773 0 6 tcp 1040 ------- 0 0.0 5.0 8 33
- 0.26088 2 3 tcp 1040 ------- 0 2.0 3.0 8 20
r 0.26188 2 3 tcp 1040 ------- 0 2.0 3.0 7 19
+ 0.26188 3 2 ack 40 ------- 0 3.0 2.0 7 34
- 0.26188 3 2 ack 40 ------- 0 3.0 2.0 7 34
r 0.2632 3 2 ack 40 ------- 0 3.0 2.0 7 34
+ 0.2632 2 3 tcp 1040 ------- 0 2.0 3.0 15 35
+ 0.2632 2 3 tcp 1040 ------- 0 2.0 3.0 16 36
d 0.2632 2 3 tcp 1040 ------- 0 2.0 3.0 16 36
- 0.2692 2 3 tcp 1040 ------- 0 2.0 3.0 9 22
r 0.2702 2 3 tcp 1040 ------- 0 2.0 3.0 8 20
+ 0.2702 3 2 ack 40 ------- 0 3.0 2.0 8 37
- 0.2702 3 2 ack 40 ------- 0 3.0 2.0 8 37
+ 0.270773 0 6 tcp 1040 ------- 0 0.0 5.0 6 31
- 0.270773 0 6 tcp 1040 ------- 0 0.0 5.0 6 31
+ 0.270773 0 6 tcp 1040 ------- 0 0.0 5.0 7 32
+ 0.270773 0 6 tcp 1040 ------- 0 0.0 5.0 8 33
- 0.270858 0 6 tcp 1040 ------- 0 0.0 5.0 7 32
- 0.270944 0 6 tcp 1040 ------- 0 0.0 5.0 8 33
r 0.27152 3 2 ack 40 ------- 0 3.0 2.0 8 37
+ 0.27152 2 3 tcp 1040 ------- 0 2.0 3.0 17 38
+ 0.27152 2 3 tcp 1040 ------- 0 2.0 3.0 18 39
d 0.27152 2 3 tcp 1040 ------- 0 2.0 3.0 18 39
- 0.27752 2 3 tcp 1040 ------- 0 2.0 3.0 11 26
r 0.27852 2 3 tcp 1040 ------- 0 2.0 3.0 9 22
+ 0.27852 3 2 ack 40 ------- 0 3.0 2.0 9 40
- 0.27852 3 2 ack 40 ------- 0 3.0 2.0 9 40
r 0.27984 3 2 ack 40 ------- 0 3.0 2.0 9 40
+ 0.27984 2 3 tcp 1040 ------- 0 2.0 3.0 19 41
+ 0.27984 2 3 tcp 1040 ------- 0 2.0 3.0 20 42
d 0.27984 2 3 tcp 1040 ------- 0 2.0 3.0 20 42
r 0.280861 6 4 tcp 1040 ------- 0 0.0 5.0 6 31
+ 0.280861 4 5 tcp 1040 ------- 0 0.0 5.0 6 31
- 0.280861 4 5 tcp 1040 ------- 0 0.0 5.0 6 31
r 0.280947 6 4 tcp 1040 ------- 0 0.0 5.0 7 32
+ 0.280947 4 5 tcp 1040 ------- 0 0.0 5.0 7 32
r 0.281032 6 4 tcp 1040 ------- 0 0.0 5.0 8 33
+ 0.281032 4 5 tcp 1040 ------- 0 0.0 5.0 8 33
- 0.28584 2 3 tcp 1040 ------- 0 2.0 3.0 13 29
r 0.28684 2 3 tcp 1040 ------- 0 2.0 3.0 11 26
+ 0.28684 3 2 ack 40 ------- 0 3.0 2.0 9 43
- 0.28684 3 2 ack 40 ------- 0 3.0 2.0 9 43
r 0.28816 3 2 ack 40 ------- 0 3.0 2.0 9 43
+ 0.28816 2 3 tcp 1040 ------- 0 2.0 3.0 21 44
- 0.289181 4 5 tcp 1040 ------- 0 0.0 5.0 7 32
r 0.290181 4 5 tcp 1040 ------- 0 0.0 5.0 6 31
+ 0.290181 5 4 ack 40 ------- 0 5.0 0.0 6 45
- 0.290181 5 4 ack 40 ------- 0 5.0 0.0 6 45
r 0.291501 5 4 ack 40 ------- 0 5.0 0.0 6 45
h 0.291501 4 6 ack 40 ------- 0 5.0 0.0 6 45
- 0.29416 2 3 tcp 1040 ------- 0 2.0 3.0 15 35
r 0.29516 2 3 tcp 1040 ------- 0 2.0 3.0 13 29
+ 0.29516 3 2 ack 40 ------- 0 3.0 2.0 9 46
- 0.29516 3 2 ack 40 ------- 0 3.0 2.0 9 46
r 0.29648 3 2 ack 40 ------- 0 3.0 2.0 9 46
+ 0.29648 2 3 tcp 1040 ------- 0 2.0 3.0 22 47
- 0.297501 4 5 tcp 1040 ------- 0 0.0 5.0 8 33
r 0.298501 4 5 tcp 1040 ------- 0 0.0 5.0 7 32
+ 0.301501 4 6 ack 40 ------- 0 5.0 0.0 6 45
- 0.301501 4 6 ack 40 ------- 0 5.0 0.0 6 45
- 0.30248 2 3 tcp 1040 ------- 0 2.0 3.0 17 38
r 0.30348 2 3 tcp 1040 ------- 0 2.0 3.0 15 35
+ 0.30348 3 2 ack 40 ------- 0 3.0 2.0 9 48
- 0.30348 3 2 ack 40 ------- 0 3.0 2.0 9 48
r 0.3048 3 2 ack 40 ------- 0 3.0 2.0 9 48
+ 0.3048 2 3 tcp 1040 ---A--- 0 2.0 3.0 10 49
r 0.306821 4 5 tcp 1040 ------- 0 0.0 5.0 8 33
+ 0.306821 5 4 ack 40 ------- 0 5.0 0.0 8 50
- 0.306821 5 4 ack 40 ------- 0 5.0 0.0 8 50
r 0.308141 5 4 ack 40 ------- 0 5.0 0.0 8 50
h 0.308141 4 6 ack 40 ------- 0 5.0 0.0 8 50
- 0.3108 2 3 tcp 1040 ------- 0 2.0 3.0 19 41
r 0.311511 6 0 ack 40 ------- 0 5.0 0.0 6 45
h 0.311511 0 6 tcp 1040 ------- 0 0.0 5.0 9 51
h 0.311511 0 6 tcp 1040 ------- 0 0.0 5.0 10 52
h 0.311511 0 6 tcp 1040 ------- 0 0.0 5.0 11 53
r 0.3118 2 3 tcp 1040 ------- 0 2.0 3.0 17 38
+ 0.3118 3 2 ack 40 ------- 0 3.0 2.0 9 54
- 0.3118 3 2 ack 40 ------- 0 3.0 2.0 9 54
r 0.31312 3 2 ack 40 ------- 0 3.0 2.0 9 54
+ 0.318141 4 6 ack 40 ------- 0 5.0 0.0 8 50
- 0.318141 4 6 ack 40 ------- 0 5.0 0.0 8 50
- 0.31912 2 3 tcp 1040 ------- 0 2.0 3.0 21 44
r 0.32012 2 3 tcp 1040 ------- 0 2.0 3.0 19 41
+ 0.32012 3 2 ack 40 ------- 0 3.0 2.0 9 55
- 0.32012 3 2 ack 40 ------- 0 3.0 2.0 9 55
r 0.32144 3 2 ack 40 ------- 0 3.0 2.0 9 55
+ 0.321511 0 6 tcp 1040 ------- 0 0.0 5.0 9 51
- 0.321511 0 6 tcp 1040 ------- 0 0.0 5.0 9 51
+ 0.321511 0 6 tcp 1040 ------- 0 0.0 5.0 10 52
+ 0.321511 0 6 tcp 1040 ------- 0 0.0 5.0 11 53
- 0.321596 0 6 tcp 1040 ------- 0 0.0 5.0 10 52
- 0.321681 0 6 tcp 1040 ------- 0 0.0 5.0 11 53
- 0.32744 2 3 tcp 1040 ------- 0 2.0 3.0 22 47
r 0.328151 6 0 ack 40 ------- 0 5.0 0.0 8 50
h 0.328151 0 6 tcp 1040 ------- 0 0.0 5.0 12 56
h 0.328151 0 6 tcp 1040 ------- 0 0.0 5.0 13 57
h 0.328151 0 6 tcp 1040 ------- 0 0.0 5.0 14 58
r 0.32844 2 3 tcp 1040 ------- 0 2.0 3.0 21 44
+ 0.32844 3 2 ack 40 ------- 0 3.0 2.0 9 59
- 0.32844 3 2 ack 40 ------- 0 3.0 2.0 9 59
r 0.32976 3 2 ack 40 ------- 0 3.0 2.0 9 59
r 0.331599 6 4 tcp 1040 ------- 0 0.0 5.0 9 51
+ 0.331599 4 5 tcp 1040 ------- 0 0.0 5.0 9 51
- 0.331599 4 5 tcp 1040 ------- 0 0.0 5.0 9 51
r 0.331684 6 4 tcp 1040 ------- 0 0.0 5.0 10 52
+ 0.331684 4 5 tcp 1040 ------- 0 0.0 5.0 10 52
r 0.331769 6 4 tcp 1040 ------- 0 0.0 5.0 11 53
+ 0.331769 4 5 tcp 1040 ------- 0 0.0 5.0 11 53
- 0.33576 2 3 tcp 1040 ---A--- 0 2.0 3.0 10 49
r 0.33676 2 3 tcp 1040 ------- 0 2.0 3.0 22 47
+ 0.33676 3 2 ack 40 ------- 0 3.0 2.0 9 60
- 0.33676 3 2 ack 40 ------- 0 3.0 2.0 9 60
r 0.33808 3 2 ack 40 ------- 0 3.0 2.0 9 60
+ 0.338151 0 6 tcp 1040 ------- 0 0.0 5.0 12 56
- 0.338151 0 6 tcp 1040 ------- 0 0.0 5.0 12 56
+ 0.338151 0 6 tcp 1040 ------- 0 0.0 5.0 13 57
+ 0.338151 0 6 tcp 1040 ------- 0 0.0 5.0 14 58
- 0.338236 0 6 tcp 1040 ------- 0 0.0 5.0 13 57
- 0.338321 0 6 tcp 1040 ------- 0 0.0 5.0 14 58
- 0.339919 4 5 tcp 1040 ------- 0 0.0 5.0 10 52
r 0.340919 4 5 tcp 1040 ------- 0 0.0 5.0 9 51
r 0.34508 2 3 tcp 1040 ---A--- 0 2.0 3.0 10 49
+ 0.34508 3 2 ack 40 ------- 0 3.0 2.0 11 61
- 0.34508 3 2 ack 40 ------- 0 3.0 2.0 11 61
r 0.3464 3 2 ack 40 ------- 0 3.0 2.0 11 61
+ 0.3464 2 3 tcp 1040 ------- 0 2.0 3.0 12 62
- 0.3464 2 3 tcp 1040 ------- 0 2.0 3.0 12 62
+ 0.3464 2 3 tcp 1040 ------- 0 2.0 3.0 13 63
r 0.348239 6 4 tcp 1040 ------- 0 0.0 5.0 12 56
+ 0.348239 4 5 tcp 1040 ------- 0 0.0 5.0 12 56
- 0.348239 4 5 tcp 1040 ------- 0 0.0 5.0 11 53
r 0.348324 6 4 tcp 1040 ------- 0 0.0 5.0 13 57
+ 0.348324 4 5 tcp 1040 ------- 0 0.0 5.0 13 57
r 0.348409 6 4 tcp 1040 ------- 0 0.0 5.0 14 58
+ 0.348409 4 5 tcp 1040 ------- 0 0.0 5.0 14 58
d 0.348409 4 5 tcp 1040 ------- 0 0.0 5.0 14 58
r 0.349239 4 5 tcp 1040 ------- 0 0.0 5.0 10 52
+ 0.349239 5 4 ack 40 ------- 0 5.0 0.0 10 64
- 0.349239 5 4 ack 40 ------- 0 5.0 0.0 10 64
r 0.350559 5 4 ack 40 ------- 0 5.0 0.0 10 64
h 0.350559 4 6 ack 40 ------- 0 5.0 0.0 10 64
- 0.35472 2 3 tcp 1040 ------- 0 2.0 3.0 13 63
r 0.35572 2 3 tcp 1040 ------- 0 2.0 3.0 12 62
+ 0.35572 3 2 ack 40 ------- 0 3.0 2.0 13 65
- 0.35572 3 2 ack 40 ------- 0 3.0 2.0 13 65
- 0.356559 4 5 tcp 1040 ------- 0 0.0 5.0 12 56
r 0.35704 3 2 ack 40 ------- 0 3.0 2.0 13 65
+ 0.35704 2 3 tcp 1040 ------- 0 2.0 3.0 14 66
+ 0.35704 2 3 tcp 1040 ------- 0 2.0 3.0 15 67
+ 0.35704 2 3 tcp 1040 ------- 0 2.0 3.0 16 68
r 0.357559 4 5 tcp 1040 ------- 0 0.0 5.0 11 53
+ 0.360559 4 6 ack 40 ------- 0 5.0 0.0 10 64
- 0.360559 4 6 ack 40 ------- 0 5.0 0.0 10 64
- 0.36304 2 3 tcp 1040 ------- 0 2.0 3.0 14 66
r 0.36404 2 3 tcp 1040 ------- 0 2.0 3.0 13 63
+ 0.36404 3 2 ack 40 ------- 0 3.0 2.0 13 69
- 0.36404 3 2 ack 40 ------- 0 3.0 2.0 13 69
- 0.364879 4 5 tcp 1040 ------- 0 0.0 5.0 13 57
r 0.36536 3 2 ack 40 ------- 0 3.0 2.0 13 69
+ 0.36536 2 3 tcp 1040 ------- 0 2.0 3.0 17 70
r 0.365879 4 5 tcp 1040 ------- 0 0.0 5.0 12 56
+ 0.365879 5 4 ack 40 ------- 0 5.0 0.0 12 71
- 0.365879 5 4 ack 40 ------- 0 5.0 0.0 12 71
r 0.367199 5 4 ack 40 ------- 0 5.0 0.0 12 71
h 0.367199 4 6 ack 40 ------- 0 5.0 0.0 12 71
r 0.370568 6 0 ack 40 ------- 0 5.0 0.0 10 64
h 0.370568 0 6 tcp 1040 ------- 0 0.0 5.0 15 72
h 0.370568 0 6 tcp 1040 ------- 0 0.0 5.0 16 73
h 0.370568 0 6 tcp 1040 ------- 0 0.0 5.0 17 74
- 0.37136 2 3 tcp 1040 ------- 0 2.0 3.0 15 67
r 0.37236 2 3 tcp 1040 ------- 0 2.0 3.0 14 66
+ 0.37236 3 2 ack 40 ------- 0 3.0 2.0 15 75
- 0.37236 3 2 ack 40 ------- 0 3.0 2.0 15 75
r 0.37368 3 2 ack 40 ------- 0 3.0 2.0 15 75
+ 0.37368 2 3 tcp 1040 ------- 0 2.0 3.0 18 76
+ 0.37368 2 3 tcp 1040 ------- 0 2.0 3.0 19 77
r 0.374199 4 5 tcp 1040 ------- 0 0.0 5.0 13 57
+ 0.377199 4 6 ack 40 ------- 0 5.0 0.0 12 71
- 0.377199 4 6 ack 40 ------- 0 5.0 0.0 12 71
- 0.37968 2 3 tcp 1040 ------- 0 2.0 3.0 16 68
+ 0.380568 0 6 tcp 1040 ------- 0 0.0 5.0 15 72
- 0.380568 0 6 tcp 1040 ------- 0 0.0 5.0 15 72
+ 0.380568 0 6 tcp 1040 ------- 0 0.0 5.0 16 73
+ 0.380568 0 6 tcp 1040 ------- 0 0.0 5.0 17 74
- 0.380653 0 6 tcp 1040 ------- 0 0.0 5.0 16 73
r 0.38068 2 3 tcp 1040 ------- 0 2.0 3.0 15 67
+ 0.38068 3 2 ack 40 ------- 0 3.0 2.0 15 78
- 0.38068 3 2 ack 40 ------- 0 3.0 2.0 15 78
- 0.380739 0 6 tcp 1040 ------- 0 0.0 5.0 17 74
r 0.382 3 2 ack 40 ------- 0 3.0 2.0 15 78
+ 0.382 2 3 tcp 1040 ------- 0 2.0 3.0 20 79
r 0.387208 6 0 ack 40 ------- 0 5.0 0.0 12 71
h 0.387208 0 6 tcp 1040 ------- 0 0.0 5.0 18 80
h 0.387208 0 6 tcp 1040 ------- 0 0.0 5.0 19 81
h 0.387208 0 6 tcp 1040 ------- 0 0.0 5.0 20 82
- 0.388 2 3 tcp 1040 ------- 0 2.0 3.0 17 70
r 0.389 2 3 tcp 1040 ------- 0 2.0 3.0 16 68
+ 0.389 3 2 ack 40 ------- 0 3.0 2.0 17 83
- 0.389 3 2 ack 40 ------- 0 3.0 2.0 17 83
r 0.39032 3 2 ack 40 ------- 0 3.0 2.0 17 83
+ 0.39032 2 3 tcp 1040 ------- 0 2.0 3.0 21 84
+ 0.39032 2 3 tcp 1040 ------- 0 2.0 3.0 22 85
d 0.39032 2 3 tcp 1040 ------- 0 2.0 3.0 22 85
r 0.390656 6 4 tcp 1040 ------- 0 0.0 5.0 15 72
+ 0.390656 4 5 tcp 1040 ------- 0 0.0 5.0 15 72
- 0.390656 4 5 tcp 1040 ------- 0 0.0 5.0 15 72
r 0.390742 6 4 tcp 1040 ------- 0 0.0 5.0 16 73
+ 0.390742 4 5 tcp 1040 ------- 0 0.0 5.0 16 73
r 0.390827 6 4 tcp 1040 ------- 0 0.0 5.0 17 74
+ 0.390827 4 5 tcp 1040 ------- 0 0.0 5.0 17 74
- 0.39632 2 3 tcp 1040 ------- 0 2.0 3.0 18 76
+ 0.397208 0 6 tcp 1040 ------- 0 0.0 5.0 18 80
- 0.397208 0 6 tcp 1040 ------- 0 0.0 5.0 18 80
+ 0.397208 0 6 tcp 1040 ------- 0 0.0 5.0 19 81
+ 0.397208 0 6 tcp 1040 ------- 0 0.0 5.0 20 82
- 0.397293 0 6 tcp 1040 ------- 0 0.0 5.0 19 81
r 0.39732 2 3 tcp 1040 ------- 0 2.0 3.0 17 70
+ 0.39732 3 2 ack 40 ------- 0 3.0 2.0 17 86
- 0.39732 3 2 ack 40 ------- 0 3.0 2.0 17 86
- 0.397379 0 6 tcp 1040 ------- 0 0.0 5.0 20 82
r 0.39864 3 2 ack 40 ------- 0 3.0 2.0 17 86
+ 0.39864 2 3 tcp 1040 ------- 0 2.0 3.0 23 87
- 0.398976 4 5 tcp 1040 ------- 0 0.0 5.0 16 73
r 0.399976 4 5 tcp 1040 ------- 0 0.0 5.0 15 72
+ 0.399976 5 4 ack 40 ------- 0 5.0 0.0 13 88
- 0.399976 5 4 ack 40 ------- 0 5.0 0.0 13 88
r 0.401296 5 4 ack 40 ------- 0 5.0 0.0 13 88
h 0.401296 4 6 ack 40 ------- 0 5.0 0.0 13 88
- 0.40464 2 3 tcp 1040 ------- 0 2.0 3.0 19 77
r 0.40564 2 3 tcp 1040 ------- 0 2.0 3.0 18 76
+ 0.40564 3 2 ack 40 ------- 0 3.0 2.0 19 89
- 0.40564 3 2 ack 40 ------- 0 3.0 2.0 19 89
r 0.40696 3 2 ack 40 ------- 0 3.0 2.0 19 89
+ 0.40696 2 3 tcp 1040 ------- 0 2.0 3.0 24 90
r 0.407296 6 4 tcp 1040 ------- 0 0.0 5.0 18 80
+ 0.407296 4 5 tcp 1040 ------- 0 0.0 5.0 18 80
- 0.407296 4 5 tcp 1040 ------- 0 0.0 5.0 17 74
r 0.407382 6 4 tcp 1040 ------- 0 0.0 5.0 19 81
+ 0.407382 4 5 tcp 1040 ------- 0 0.0 5.0 19 81
r 0.407467 6 4 tcp 1040 ------- 0 0.0 5.0 20 82
+ 0.407467 4 5 tcp 1040 ------- 0 0.0 5.0 20 82
d 0.407467 4 5 tcp 1040 ------- 0 0.0 5.0 20 82
r 0.408296 4 5 tcp 1040 ------- 0 0.0 5.0 16 73
+ 0.408296 5 4 ack 40 ------- 0 5.0 0.0 13 91
- 0.408296 5 4 ack 40 ------- 0 5.0 0.0 13 91
r 0.409616 5 4 ack 40 ------- 0 5.0 0.0 13 91
h 0.409616 4 6 ack 40 ------- 0 5.0 0.0 13 91
+ 0.411296 4 6 ack 40 ------- 0 5.0 0.0 13 88
- 0.411296 4 6 ack 40 ------- 0 5.0 0.0 13 88
- 0.41296 2 3 tcp 1040 ------- 0 2.0 3.0 20 79
r 0.41396 2 3 tcp 1040 ------- 0 2.0 3.0 19 77
+ 0.41396 3 2 ack 40 ------- 0 3.0 2.0 19 92
- 0.41396 3 2 ack 40 ------- 0 3.0 2.0 19 92
r 0.41528 3 2 ack 40 ------- 0 3.0 2.0 19 92
+ 0.41528 2 3 tcp 1040 ------- 0 2.0 3.0 25 93
- 0.415616 4 5 tcp 1040 ------- 0 0.0 5.0 18 80
r 0.416616 4 5 tcp 1040 ------- 0 0.0 5.0 17 74
+ 0.416616 5 4 ack 40 ------- 0 5.0 0.0 13 94
- 0.416616 5 4 ack 40 ------- 0 5.0 0.0 13 94
r 0.417936 5 4 ack 40 ------- 0 5.0 0.0 13 94
h 0.417936 4 6 ack 40 ------- 0 5.0 0.0 13 94
+ 0.419616 4 6 ack 40 ------- 0 5.0 0.0 13 91
- 0.419616 4 6 ack 40 ------- 0 5.0 0.0 13 91
- 0.42128 2 3 tcp 1040 ------- 0 2.0 3.0 21 84
r 0.421305 6 0 ack 40 ------- 0 5.0 0.0 13 88
h 0.421305 0 6 tcp 1040 ------- 0 0.0 5.0 21 95
h 0.421305 0 6 tcp 1040 ------- 0 0.0 5.0 22 96
r 0.42228 2 3 tcp 1040 ------- 0 2.0 3.0 20 79
+ 0.42228 3 2 ack 40 ------- 0 3.0 2.0 22 97
- 0.42228 3 2 ack 40 ------- 0 3.0 2.0 22 97
r 0.4236 3 2 ack 40 ------- 0 3.0 2.0 22 97
+ 0.4236 2 3 tcp 1040 ------- 0 2.0 3.0 26 98
+ 0.4236 2 3 tcp 1040 ------- 0 2.0 3.0 27 99
d 0.4236 2 3 tcp 1040 ------- 0 2.0 3.0 27 99
- 0.423936 4 5 tcp 1040 ------- 0 0.0 5.0 19 81
r 0.424936 4 5 tcp 1040 ------- 0 0.0 5.0 18 80
+ 0.424936 5 4 ack 40 ------- 0 5.0 0.0 13 100
- 0.424936 5 4 ack 40 ------- 0 5.0 0.0 13 100
r 0.426256 5 4 ack 40 ------- 0 5.0 0.0 13 100
h 0.426256 4 6 ack 40 ------- 0 5.0 0.0 13 100
+ 0.427936 4 6 ack 40 ------- 0 5.0 0.0 13 94
- 0.427936 4 6 ack 40 ------- 0 5.0 0.0 13 94
- 0.4296 2 3 tcp 1040 ------- 0 2.0 3.0 23 87
r 0.429625 6 0 ack 40 ------- 0 5.0 0.0 13 91
h 0.429625 0 6 tcp 1040 ------- 0 0.0 5.0 23 101
r 0.4306 2 3 tcp 1040 ------- 0 2.0 3.0 21 84
+ 0.4306 3 2 ack 40 ------- 0 3.0 2.0 22 102
- 0.4306 3 2 ack 40 ------- 0 3.0 2.0 22 102
+ 0.431305 0 6 tcp 1040 ------- 0 0.0 5.0 21 95
- 0.431305 0 6 tcp 1040 ------- 0 0.0 5.0 21 95
+ 0.431305 0 6 tcp 1040 ------- 0 0.0 5.0 22 96
- 0.431391 0 6 tcp 1040 ------- 0 0.0 5.0 22 96
r 0.43192 3 2 ack 40 ------- 0 3.0 2.0 22 102
+ 0.43192 2 3 tcp 1040 ------- 0 2.0 3.0 28 103
r 0.433256 4 5 tcp 1040 ------- 0 0.0 5.0 19 81
+ 0.433256 5 4 ack 40 ------- 0 5.0 0.0 13 104
- 0.433256 5 4 ack 40 ------- 0 5.0 0.0 13 104
r 0.434576 5 4 ack 40 ------- 0 5.0 0.0 13 104
h 0.434576 4 6 ack 40 ------- 0 5.0 0.0 13 104
+ 0.436256 4 6 ack 40 ------- 0 5.0 0.0 13 100
- 0.436256 4 6 ack 40 ------- 0 5.0 0.0 13 100
- 0.43792 2 3 tcp 1040 ------- 0 2.0 3.0 24 90
r 0.437945 6 0 ack 40 ------- 0 5.0 0.0 13 94
h 0.437945 0 6 tcp 1040 ------- 0 0.0 5.0 24 105
r 0.43892 2 3 tcp 1040 ------- 0 2.0 3.0 23 87
+ 0.43892 3 2 ack 40 ------- 0 3.0 2.0 23 106
- 0.43892 3 2 ack 40 ------- 0 3.0 2.0 23 106
+ 0.439625 0 6 tcp 1040 ------- 0 0.0 5.0 23 101
- 0.439625 0 6 tcp 1040 ------- 0 0.0 5.0 23 101
r 0.44024 3 2 ack 40 ------- 0 3.0 2.0 23 106
r 0.441394 6 4 tcp 1040 ------- 0 0.0 5.0 21 95
+ 0.441394 4 5 tcp 1040 ------- 0 0.0 5.0 21 95
- 0.441394 4 5 tcp 1040 ------- 0 0.0 5.0 21 95
r 0.441479 6 4 tcp 1040 ------- 0 0.0 5.0 22 96
+ 0.441479 4 5 tcp 1040 ------- 0 0.0 5.0 22 96
+ 0.444576 4 6 ack 40 ------- 0 5.0 0.0 13 104
- 0.444576 4 6 ack 40 ------- 0 5.0 0.0 13 104
- 0.44624 2 3 tcp 1040 ------- 0 2.0 3.0 25 93
r 0.446265 6 0 ack 40 ------- 0 5.0 0.0 13 100
h 0.446265 0 6 tcp 1040 ---A--- 0 0.0 5.0 14 107
r 0.44724 2 3 tcp 1040 ------- 0 2.0 3.0 24 90
+ 0.44724 3 2 ack 40 ------- 0 3.0 2.0 24 108
- 0.44724 3 2 ack 40 ------- 0 3.0 2.0 24 108
+ 0.447945 0 6 tcp 1040 ------- 0 0.0 5.0 24 105
- 0.447945 0 6 tcp 1040 ------- 0 0.0 5.0 24 105
r 0.44856 3 2 ack 40 ------- 0 3.0 2.0 24 108
+ 0.44856 2 3 tcp 1040 ------- 0 2.0 3.0 29 109
r 0.449714 6 4 tcp 1040 ------- 0 0.0 5.0 23 101
+ 0.449714 4 5 tcp 1040 ------- 0 0.0 5.0 23 101
- 0.449714 4 5 tcp 1040 ------- 0 0.0 5.0 22 96
r 0.450714 4 5 tcp 1040 ------- 0 0.0 5.0 21 95
+ 0.450714 5 4 ack 40 ------- 0 5.0 0.0 13 110
- 0.450714 5 4 ack 40 ------- 0 5.0 0.0 13 110
r 0.452034 5 4 ack 40 ------- 0 5.0 0.0 13 110
h 0.452034 4 6 ack 40 ------- 0 5.0 0.0 13 110
- 0.45456 2 3 tcp 1040 ------- 0 2.0 3.0 26 98
r 0.454585 6 0 ack 40 ------- 0 5.0 0.0 13 104
r 0.45556 2 3 tcp 1040 ------- 0 2.0 3.0 25 93
+ 0.45556 3 2 ack 40 ------- 0 3.0 2.0 25 111
- 0.45556 3 2 ack 40 ------- 0 3.0 2.0 25 111
+ 0.456265 0 6 tcp 1040 ---A--- 0 0.0 5.0 14 107
- 0.456265 0 6 tcp 1040 ---A--- 0 0.0 5.0 14 107
r 0.45688 3 2 ack 40 ------- 0 3.0 2.0 25 111
+ 0.45688 2 3 tcp 1040 ------- 0 2.0 3.0 30 112
r 0.458034 6 4 tcp 1040 ------- 0 0.0 5.0 24 105
+ 0.458034 4 5 tcp 1040 ------- 0 0.0 5.0 24 105
- 0.458034 4 5 tcp 1040 ------- 0 0.0 5.0 23 101
r 0.459034 4 5 tcp 1040 ------- 0 0.0 5.0 22 96
+ 0.459034 5 4 ack 40 ------- 0 5.0 0.0 13 113
- 0.459034 5 4 ack 40 ------- 0 5.0 0.0 13 113
r 0.460354 5 4 ack 40 ------- 0 5.0 0.0 13 113
h 0.460354 4 6 ack 40 ------- 0 5.0 0.0 13 113
+ 0.462034 4 6 ack 40 ------- 0 5.0 0.0 13 110
- 0.462034 4 6 ack 40 ------- 0 5.0 0.0 13 110
- 0.46288 2 3 tcp 1040 ------- 0 2.0 3.0 28 103
r 0.46388 2 3 tcp 1040 ------- 0 2.0 3.0 26 98
+ 0.46388 3 2 ack 40 ------- 0 3.0 2.0 26 114
- 0.46388 3 2 ack 40 ------- 0 3.0 2.0 26 114
r 0.4652 3 2 ack 40 ------- 0 3.0 2.0 26 114
+ 0.4652 2 3 tcp 1040 ------- 0 2.0 3.0 31 115
+ 0.4652 2 3 tcp 1040 ------- 0 2.0 3.0 32 116
r 0.466354 6 4 tcp 1040 ---A--- 0 0.0 5.0 14 107
+ 0.466354 4 5 tcp 1040 ---A--- 0 0.0 5.0 14 107
- 0.466354 4 5 tcp 1040 ------- 0 0.0 5.0 24 105
r 0.467354 4 5 tcp 1040 ------- 0 0.0 5.0 23 101
+ 0.467354 5 4 ack 40 ------- 0 5.0 0.0 13 117
- 0.467354 5 4 ack 40 ------- 0 5.0 0.0 13 117
r 0.468674 5 4 ack 40 ------- 0 5.0 0.0 13 117
h 0.468674 4 6 ack 40 ------- 0 5.0 0.0 13 117
+ 0.470354 4 6 ack 40 ------- 0 5.0 0.0 13 113
- 0.470354 4 6 ack 40 ------- 0 5.0 0.0 13 113
- 0.4712 2 3 tcp 1040 ------- 0 2.0 3.0 29 109
r 0.472043 6 0 ack 40 ------- 0 5.0 0.0 13 110
r 0.4722 2 3 tcp 1040 ------- 0 2.0 3.0 28 103
+ 0.4722 3 2 ack 40 ------- 0 3.0 2.0 26 118
- 0.4722 3 2 ack 40 ------- 0 3.0 2.0 26 118
r 0.47352 3 2 ack 40 ------- 0 3.0 2.0 26 118
+ 0.47352 2 3 tcp 1040 ------- 0 2.0 3.0 33 119
- 0.474674 4 5 tcp 1040 ---A--- 0 0.0 5.0 14 107
r 0.475674 4 5 tcp 1040 ------- 0 0.0 5.0 24 105
+ 0.475674 5 4 ack 40 ------- 0 5.0 0.0 13 120
- 0.475674 5 4 ack 40 ------- 0 5.0 0.0 13 120
r 0.476994 5 4 ack 40 ------- 0 5.0 0.0 13 120
h 0.476994 4 6 ack 40 ------- 0 5.0 0.0 13 120
+ 0.478674 4 6 ack 40 ------- 0 5.0 0.0 13 117
- 0.478674 4 6 ack 40 ------- 0 5.0 0.0 13 117
- 0.47952 2 3 tcp 1040 ------- 0 2.0 3.0 30 112
r 0.480363 6 0 ack 40 ------- 0 5.0 0.0 13 113
r 0.48052 2 3 tcp 1040 ------- 0 2.0 3.0 29 109
+ 0.48052 3 2 ack 40 ------- 0 3.0 2.0 26 121
- 0.48052 3 2 ack 40 ------- 0 3.0 2.0 26 121
r 0.48184 3 2 ack 40 ------- 0 3.0 2.0 26 121
+ 0.48184 2 3 tcp 1040 ------- 0 2.0 3.0 34 122
r 0.483994 4 5 tcp 1040 ---A--- 0 0.0 5.0 14 107
+ 0.483994 5 4 ack 40 ------- 0 5.0 0.0 19 123
- 0.483994 5 4 ack 40 ------- 0 5.0 0.0 19 123
r 0.485314 5 4 ack 40 ------- 0 5.0 0.0 19 123
h 0.485314 4 6 ack 40 ------- 0 5.0 0.0 19 123
+ 0.486994 4 6 ack 40 ------- 0 5.0 0.0 13 120
- 0.486994 4 6 ack 40 ------- 0 5.0 0.0 13 120
- 0.48784 2 3 tcp 1040 ------- 0 2.0 3.0 31 115
r 0.488683 6 0 ack 40 ------- 0 5.0 0.0 13 117
r 0.48884 2 3 tcp 1040 ------- 0 2.0 3.0 30 112
+ 0.48884 3 2 ack 40 ------- 0 3.0 2.0 26 124
- 0.48884 3 2 ack 40 ------- 0 3.0 2.0 26 124
r 0.49016 3 2 ack 40 ------- 0 3.0 2.0 26 124
+ 0.49016 2 3 tcp 1040 ---A--- 0 2.0 3.0 27 125
+ 0.495314 4 6 ack 40 ------- 0 5.0 0.0 19 123
- 0.495314 4 6 ack 40 ------- 0 5.0 0.0 19 123
- 0.49616 2 3 tcp 1040 ------- 0 2.0 3.0 32 116
r 0.497003 6 0 ack 40 ------- 0 5.0 0.0 13 120
h 0.497003 0 6 tcp 1040 ------- 0 0.0 5.0 25 126
r 0.49716 2 3 tcp 1040 ------- 0 2.0 3.0 31 115
+ 0.49716 3 2 ack 40 ------- 0 3.0 2.0 26 127
- 0.49716 3 2 ack 40 ------- 0 3.0 2.0 26 127
r 0.49848 3 2 ack 40 ------- 0 3.0 2.0 26 127
- 0.50448 2 3 tcp 1040 ------- 0 2.0 3.0 33 119
r 0.505323 6 0 ack 40 ------- 0 5.0 0.0 19 123
h 0.505323 0 6 tcp 1040 ------- 0 0.0 5.0 20 128
h 0.505323 0 6 tcp 1040 ------- 0 0.0 5.0 26 129
r 0.50548 2 3 tcp 1040 ------- 0 2.0 3.0 32 116
+ 0.50548 3 2 ack 40 ------- 0 3.0 2.0 26 130
- 0.50548 3 2 ack 40 ------- 0 3.0 2.0 26 130
r 0.5068 3 2 ack 40 ------- 0 3.0 2.0 26 130
+ 0.507003 0 6 tcp 1040 ------- 0 0.0 5.0 25 126
- 0.507003 0 6 tcp 1040 ------- 0 0.0 5.0 25 126
- 0.5128 2 3 tcp 1040 ------- 0 2.0 3.0 34 122
r 0.5138 2 3 tcp 1040 ------- 0 2.0 3.0 33 119
+ 0.5138 3 2 ack 40 ------- 0 3.0 2.0 26 131
- 0.5138 3 2 ack 40 ------- 0 3.0 2.0 26 131
r 0.51512 3 2 ack 40 ------- 0 3.0 2.0 26 131
+ 0.515323 0 6 tcp 1040 ------- 0 0.0 5.0 20 128
- 0.515323 0 6 tcp 1040 ------- 0 0.0 5.0 20 128
+ 0.515323 0 6 tcp 1040 ------- 0 0.0 5.0 26 129
- 0.515408 0 6 tcp 1040 ------- 0 0.0 5.0 26 129
r 0.517091 6 4 tcp 1040 ------- 0 0.0 5.0 25 126
+ 0.517091 4 5 tcp 1040 ------- 0 0.0 5.0 25 126
- 0.517091 4 5 tcp 1040 ------- 0 0.0 5.0 25 126
- 0.52112 2 3 tcp 1040 ---A--- 0 2.0 3.0 27 125
r 0.52212 2 3 tcp 1040 ------- 0 2.0 3.0 34 122
+ 0.52212 3 2 ack 40 ------- 0 3.0 2.0 26 132
- 0.52212 3 2 ack 40 ------- 0 3.0 2.0 26 132
r 0.52344 3 2 ack 40 ------- 0 3.0 2.0 26 132
r 0.525411 6 4 tcp 1040 ------- 0 0.0 5.0 20 128
+ 0.525411 4 5 tcp 1040 ------- 0 0.0 5.0 20 128
- 0.525411 4 5 tcp 1040 ------- 0 0.0 5.0 20 128
r 0.525496 6 4 tcp 1040 ------- 0 0.0 5.0 26 129
+ 0.525496 4 5 tcp 1040 ------- 0 0.0 5.0 26 129
r 0.526411 4 5 tcp 1040 ------- 0 0.0 5.0 25 126
+ 0.526411 5 4 ack 40 ------- 0 5.0 0.0 19 133
- 0.526411 5 4 ack 40 ------- 0 5.0 0.0 19 133
r 0.527731 5 4 ack 40 ------- 0 5.0 0.0 19 133
h 0.527731 4 6 ack 40 ------- 0 5.0 0.0 19 133
r 0.53044 2 3 tcp 1040 ---A--- 0 2.0 3.0 27 125
+ 0.53044 3 2 ack 40 ------- 0 3.0 2.0 34 134
- 0.53044 3 2 ack 40 ------- 0 3.0 2.0 34 134
r 0.53176 3 2 ack 40 ------- 0 3.0 2.0 34 134
+ 0.53176 2 3 tcp 1040 ------- 0 2.0 3.0 35 135
- 0.53176 2 3 tcp 1040 ------- 0 2.0 3.0 35 135
+ 0.53176 2 3 tcp 1040 ------- 0 2.0 3.0 36 136
- 0.533731 4 5 tcp 1040 ------- 0 0.0 5.0 26 129
r 0.534731 4 5 tcp 1040 ------- 0 0.0 5.0 20 128
+ 0.534731 5 4 ack 40 ------- 0 5.0 0.0 25 137
- 0.534731 5 4 ack 40 ------- 0 5.0 0.0 25 137
r 0.536051 5 4 ack 40 ------- 0 5.0 0.0 25 137
h 0.536051 4 6 ack 40 ------- 0 5.0 0.0 25 137
+ 0.537731 4 6 ack 40 ------- 0 5.0 0.0 19 133
- 0.537731 4 6 ack 40 ------- 0 5.0 0.0 19 133
- 0.54008 2 3 tcp 1040 ------- 0 2.0 3.0 36 136
r 0.54108 2 3 tcp 1040 ------- 0 2.0 3.0 35 135
+ 0.54108 3 2 ack 40 ------- 0 3.0 2.0 35 138
- 0.54108 3 2 ack 40 ------- 0 3.0 2.0 35 138
r 0.5424 3 2 ack 40 ------- 0 3.0 2.0 35 138
+ 0.5424 2 3 tcp 1040 ------- 0 2.0 3.0 37 139
+ 0.5424 2 3 tcp 1040 ------- 0 2.0 3.0 38 140
r 0.543051 4 5 tcp 1040 ------- 0 0.0 5.0 26 129
+ 0.546051 4 6 ack 40 ------- 0 5.0 0.0 25 137
- 0.546051 4 6 ack 40 ------- 0 5.0 0.0 25 137
r 0.54774 6 0 ack 40 ------- 0 5.0 0.0 19 133
h 0.54774 0 6 tcp 1040 ------- 0 0.0 5.0 27 141
- 0.5484 2 3 tcp 1040 ------- 0 2.0 3.0 37 139
r 0.5494 2 3 tcp 1040 ------- 0 2.0 3.0 36 136
+ 0.5494 3 2 ack 40 ------- 0 3.0 2.0 36 142
- 0.5494 3 2 ack 40 ------- 0 3.0 2.0 36 142
r 0.55072 3 2 ack 40 ------- 0 3.0 2.0 36 142
+ 0.55072 2 3 tcp 1040 ------- 0 2.0 3.0 39 143
r 0.55606 6 0 ack 40 ------- 0 5.0 0.0 25 137
h 0.55606 0 6 tcp 1040 ------- 0 0.0 5.0 28 144
h 0.55606 0 6 tcp 1040 ------- 0 0.0 5.0 29 145
- 0.55672 2 3 tcp 1040 ------- 0 2.0 3.0 38 140
r 0.55772 2 3 tcp 1040 ------- 0 2.0 3.0 37 139
+ 0.55772 3 2 ack 40 ------- 0 3.0 2.0 37 146
- 0.55772 3 2 ack 40 ------- 0 3.0 2.0 37 146
+ 0.55774 0 6 tcp 1040 ------- 0 0.0 5.0 27 141
- 0.55774 0 6 tcp 1040 ------- 0 0.0 5.0 27 141
r 0.55904 3 2 ack 40 ------- 0 3.0 2.0 37 146
+ 0.55904 2 3 tcp 1040 ------- 0 2.0 3.0 40 147
- 0.56504 2 3 tcp 1040 ------- 0 2.0 3.0 39 143
r 0.56604 2 3 tcp 1040 ------- 0 2.0 3.0 38 140
+ 0.56604 3 2 ack 40 ------- 0 3.0 2.0 38 148
- 0.56604 3 2 ack 40 ------- 0 3.0 2.0 38 148
+ 0.56606 0 6 tcp 1040 ------- 0 0.0 5.0 28 144
- 0.56606 0 6 tcp 1040 ------- 0 0.0 5.0 28 144
+ 0.56606 0 6 tcp 1040 ------- 0 0.0 5.0 29 145
- 0.566146 0 6 tcp 1040 ------- 0 0.0 5.0 29 145
r 0.56736 3 2 ack 40 ------- 0 3.0 2.0 38 148
+ 0.56736 2 3 tcp 1040 ------- 0 2.0 3.0 41 149
r 0.567829 6 4 tcp 1040 ------- 0 0.0 5.0 27 141
+ 0.567829 4 5 tcp 1040 ------- 0 0.0 5.0 27 141
- 0.567829 4 5 tcp 1040 ------- 0 0.0 5.0 27 141
- 0.57336 2 3 tcp 1040 ------- 0 2.0 3.0 40 147
r 0.57436 2 3 tcp 1040 ------- 0 2.0 3.0 39 143
+ 0.57436 3 2 ack 40 ------- 0 3.0 2.0 39 150
- 0.57436 3 2 ack 40 ------- 0 3.0 2.0 39 150
r 0.57568 3 2 ack 40 ------- 0 3.0 2.0 39 150
+ 0.57568 2 3 tcp 1040 ------- 0 2.0 3.0 42 151
+ 0.57568 2 3 tcp 1040 ------- 0 2.0 3.0 43 152
r 0.576149 6 4 tcp 1040 ------- 0 0.0 5.0 28 144
+ 0.576149 4 5 tcp 1040 ------- 0 0.0 5.0 28 144
- 0.576149 4 5 tcp 1040 ------- 0 0.0 5.0 28 144
r 0.576234 6 4 tcp 1040 ------- 0 0.0 5.0 29 145
+ 0.576234 4 5 tcp 1040 ------- 0 0.0 5.0 29 145
r 0.577149 4 5 tcp 1040 ------- 0 0.0 5.0 27 141
+ 0.577149 5 4 ack 40 ------- 0 5.0 0.0 27 153
- 0.577149 5 4 ack 40 ------- 0 5.0 0.0 27 153