n -t 0 -s 0 -S DLABEL -l "src1" -L ""
n -t 0 -s 2 -S DLABEL -l "src2" -L ""
n -t 0 -s 3 -S DLABEL -l "dest1" -L ""
n -t 0 -s 5 -S DLABEL -l "dest1" -L ""
V -t * -v 1.0a5 -a 0
A -t * -n 1 -p 0 -o 0x7fffffff -c 30 -a 1
A -t * -h 1 -m 1073741823 -s 0
n -t * -a 4 -s 4 -S UP -v circle -c black -i black
n -t * -a 0 -s 0 -S UP -v circle -c magenta -i magenta
n -t * -a 5 -s 5 -S UP -v circle -c blue -i blue
n -t * -a 1 -s 1 -S UP -v circle -c black -i black
n -t * -a 2 -s 2 -S UP -v circle -c magenta -i magenta
n -t * -a 3 -s 3 -S UP -v circle -c blue -i blue
l -t * -s 2 -d 3 -S UP -r 1000000 -D 0.001 -c black
l -t * -s 4 -d 5 -S UP -r 1000000 -D 0.001 -c black
X -t * -n 6 -r 100Mb -D 10ms -o left
L -t * -s 6 -d 0 -o up
L -t * -s 6 -d 1 -o down
L -t * -s 6 -d 2 -o up
L -t * -s 6 -d 4 -o down
h -t 0.1 -s 0 -d 6 -p tcp -e 40 -c 0 -i 0 -a 0 -x {0.0 5.0 0 ------- null}
+ -t 0.11 -s 0 -d 6 -p tcp -e 40 -c 0 -i 0 -a 0 -x {0.0 5.0 0 ------- null}
- -t 0.11 -s 0 -d 6 -p tcp -e 40 -c 0 -i 0 -a 0 -x {0.0 5.0 0 ------- null}
h -t 0.11 -s 0 -d 6 -p tcp -e 40 -c 0 -i 0 -a 0 -x {0.0 5.0 -1 ------- null}
r -t 0.12000912 -s 6 -d 4 -p tcp -e 40 -c 0 -i 0 -a 0 -x {0.0 5.0 0 ------- null}
+ -t 0.12000912 -s 4 -d 5 -p tcp -e 40 -c 0 -i 0 -a 0 -x {0.0 5.0 0 ------- null}
- -t 0.12000912 -s 4 -d 5 -p tcp -e 40 -c 0 -i 0 -a 0 -x {0.0 5.0 0 ------- null}
h -t 0.12000912 -s 4 -d 5 -p tcp -e 40 -c 0 -i 0 -a 0 -x {0.0 5.0 -1 ------- null}
r -t 0.12132912 -s 4 -d 5 -p tcp -e 40 -c 0 -i 0 -a 0 -x {0.0 5.0 0 ------- null}
+ -t 0.12132912 -s 5 -d 4 -p ack -e 40 -c 0 -i 1 -a 0 -x {5.0 0.0 0 ------- null}
- -t 0.12132912 -s 5 -d 4 -p ack -e 40 -c 0 -i 1 -a 0 -x {5.0 0.0 0 ------- null}
h -t 0.12132912 -s 5 -d 4 -p ack -e 40 -c 0 -i 1 -a 0 -x {5.0 0.0 -1 ------- null}
r -t 0.12264912 -s 5 -d 4 -p ack -e 40 -c 0 -i 1 -a 0 -x {5.0 0.0 0 ------- null}
h -t 0.12264912 -s 4 -d 6 -p ack -e 40 -c 0 -i 1 -a 0 -x {5.0 0.0 0 ------- null}
+ -t 0.13264912 -s 4 -d 6 -p ack -e 40 -c 0 -i 1 -a 0 -x {5.0 0.0 0 ------- null}
- -t 0.13264912 -s 4 -d 6 -p ack -e 40 -c 0 -i 1 -a 0 -x {5.0 0.0 0 ------- null}
h -t 0.13264912 -s 4 -d 6 -p ack -e 40 -c 0 -i 1 -a 0 -x {5.0 0.0 -1 ------- null}
r -t 0.14265824 -s 6 -d 0 -p ack -e 40 -c 0 -i 1 -a 0 -x {5.0 0.0 0 ------- null}
h -t 0.14265824 -s 0 -d 6 -p tcp -e 1040 -c 0 -i 2 -a 0 -x {0.0 5.0 1 ------- null}
h -t 0.14265824 -s 0 -d 6 -p tcp -e 1040 -c 0 -i 3 -a 0 -x {0.0 5.0 2 ------- null}
+ -t 0.15265824 -s 0 -d 6 -p tcp -e 1040 -c 0 -i 2 -a 0 -x {0.0 5.0 1 ------- null}
- -t 0.15265824 -s 0 -d 6 -p tcp -e 1040 -c 0 -i 2 -a 0 -x {0.0 5.0 1 ------- null}
h -t 0.15265824 -s 0 -d 6 -p tcp -e 1040 -c 0 -i 2 -a 0 -x {0.0 5.0 -1 ------- null}
+ -t 0.15265824 -s 0 -d 6 -p tcp -e 1040 -c 0 -i 3 -a 0 -x {0.0 5.0 2 ------- null}
- -t 0.15274352 -s 0 -d 6 -p tcp -e 1040 -c 0 -i 3 -a 0 -x {0.0 5.0 2 ------- null}
h -t 0.15274352 -s 0 -d 6 -p tcp -e 1040 -c 0 -i 3 -a 0 -x {0.0 5.0 -1 ------- null}
r -t 0.16274656 -s 6 -d 4 -p tcp -e 1040 -c 0 -i 2 -a 0 -x {0.0 5.0 1 ------- null}
+ -t 0.16274656 -s 4 -d 5 -p tcp -e 1040 -c 0 -i 2 -a 0 -x {0.0 5.0 1 ------- null}
- -t 0.16274656 -s 4 -d 5 -p tcp -e 1040 -c 0 -i 2 -a 0 -x {0.0 5.0 1 ------- null}
h -t 0.16274656 -s 4 -d 5 -p tcp -e 1040 -c 0 -i 2 -a 0 -x {0.0 5.0 -1 ------- null}
r -t 0.16283184 -s 6 -d 4 -p tcp -e 1040 -c 0 -i 3 -a 0 -x {0.0 5.0 2 ------- null}
+ -t 0.16283184 -s 4 -d 5 -p tcp -e 1040 -c 0 -i 3 -a 0 -x {0.0 5.0 2 ------- null}
- -t 0.17106656 -s 4 -d 5 -p tcp -e 1040 -c 0 -i 3 -a 0 -x {0.0 5.0 2 ------- null}
h -t 0.17106656 -s 4 -d 5 -p tcp -e 1040 -c 0 -i 3 -a 0 -x {0.0 5.0 -1 ------- null}
r -t 0.17206656 -s 4 -d 5 -p tcp -e 1040 -c 0 -i 2 -a 0 -x {0.0 5.0 1 ------- null}
r -t 0.18038656 -s 4 -d 5 -p tcp -e 1040 -c 0 -i 3 -a 0 -x {0.0 5.0 2 ------- null}
+ -t 0.18038656 -s 5 -d 4 -p ack -e 40 -c 0 -i 4 -a 0 -x {5.0 0.0 2 ------- null}
- -t 0.18038656 -s 5 -d 4 -p ack -e 40 -c 0 -i 4 -a 0 -x {5.0 0.0 2 ------- null}
h -t 0.18038656 -s 5 -d 4 -p ack -e 40 -c 0 -i 4 -a 0 -x {5.0 0.0 -1 ------- null}
r -t 0.18170656 -s 5 -d 4 -p ack -e 40 -c 0 -i 4 -a 0 -x {5.0 0.0 2 ------- null}
h -t 0.18170656 -s 4 -d 6 -p ack -e 40 -c 0 -i 4 -a 0 -x {5.0 0.0 2 ------- null}
+ -t 0.19170656 -s 4 -d 6 -p ack -e 40 -c 0 -i 4 -a 0 -x {5.0 0.0 2 ------- null}
- -t 0.19170656 -s 4 -d 6 -p ack -e 40 -c 0 -i 4 -a 0 -x {5.0 0.0 2 ------- null}
h -t 0.19170656 -s 4 -d 6 -p ack -e 40 -c 0 -i 4 -a 0 -x {5.0 0.0 -1 ------- null}
+ -t 0.2 -s 2 -d 3 -p tcp -e 40 -c 0 -i 5 -a 0 -x {2.0 3.0 0 ------- null}
- -t 0.2 -s 2 -d 3 -p tcp -e 40 -c 0 -i 5 -a 0 -x {2.0 3.0 0 ------- null}
h -t 0.2 -s 2 -d 3 -p tcp -e 40 -c 0 -i 5 -a 0 -x {2.0 3.0 -1 ------- null}
r -t 0.20132 -s 2 -d 3 -p tcp -e 40 -c 0 -i 5 -a 0 -x {2.0 3.0 0 ------- null}
+ -t 0.20132 -s 3 -d 2 -p ack -e 40 -c 0 -i 6 -a 0 -x {3.0 2.0 0 ------- null}
- -t 0.20132 -s 3 -d 2 -p ack -e 40 -c 0 -i 6 -a 0 -x {3.0 2.0 0 ------- null}
h -t 0.20132 -s 3 -d 2 -p ack -e 40 -c 0 -i 6 -a 0 -x {3.0 2.0 -1 ------- null}
r -t 0.20171568 -s 6 -d 0 -p ack -e 40 -c 0 -i 4 -a 0 -x {5.0 0.0 2 ------- null}
h -t 0.20171568 -s 0 -d 6 -p tcp -e 1040 -c 0 -i 7 -a 0 -x {0.0 5.0 3 ------- null}
h -t 0.20171568 -s 0 -d 6 -p tcp -e 1040 -c 0 -i 8 -a 0 -x {0.0 5.0 4 ------- null}
h -t 0.20171568 -s 0 -d 6 -p tcp -e 1040 -c 0 -i 9 -a 0 -x {0.0 5.0 5 ------- null}
r -t 0.20264 -s 3 -d 2 -p ack -e 40 -c 0 -i 6 -a 0 -x {3.0 2.0 0 ------- null}
+ -t 0.20264 -s 2 -d 3 -p tcp -e 1040 -c 0 -i 10 -a 0 -x {2.0 3.0 1 ------- null}
- -t 0.20264 -s 2 -d 3 -p tcp -e 1040 -c 0 -i 10 -a 0 -x {2.0 3.0 1 ------- null}
h -t 0.20264 -s 2 -d 3 -p tcp -e 1040 -c 0 -i 10 -a 0 -x {2.0 3.0 -1 ------- null}
+ -t 0.20264 -s 2 -d 3 -p tcp -e 1040 -c 0 -i 11 -a 0 -x {2.0 3.0 2 ------- null}
- -t 0.21096 -s 2 -d 3 -p tcp -e 1040 -c 0 -i 11 -a 0 -x {2.0 3.0 2 ------- null}
h -t 0.21096 -s 2 -d 3 -p tcp -e 1040 -c 0 -i 11 -a 0 -x {2.0 3.0 -1 ------- null}
+ -t 0.21171568 -s 0 -d 6 -p tcp -e 1040 -c 0 -i 7 -a 0 -x {0.0 5.0 3 ------- null}
- -t 0.21171568 -s 0 -d 6 -p tcp -e 1040 -c 0 -i 7 -a 0 -x {0.0 5.0 3 ------- null}
h -t 0.21171568 -s 0 -d 6 -p tcp -e 1040 -c 0 -i 7 -a 0 -x {0.0 5.0 -1 ------- null}
+ -t 0.21171568 -s 0 -d 6 -p tcp -e 1040 -c 0 -i 8 -a 0 -x {0.0 5.0 4 ------- null}
+ -t 0.21171568 -s 0 -d 6 -p tcp -e 1040 -c 0 -i 9 -a 0 -x {0.0 5.0 5 ------- null}
- -t 0.21180096 -s 0 -d 6 -p tcp -e 1040 -c 0 -i 8 -a 0 -x {0.0 5.0 4 ------- null}
h -t 0.21180096 -s 0 -d 6 -p tcp -e 1040 -c 0 -i 8 -a 0 -x {0.0 5.0 -1 ------- null}
- -t 0.21188624 -s 0 -d 6 -p tcp -e 1040 -c 0 -i 9 -a 0 -x {0.0 5.0 5 ------- null}
h -t 0.21188624 -s 0 -d 6 -p tcp -e 1040 -c 0 -i 9 -a 0 -x {0.0 5.0 -1 ------- null}
r -t 0.21196 -s 2 -d 3 -p tcp -e 1040 -c 0 -i 10 -a 0 -x {2.0 3.0 1 ------- null}
+ -t 0.21196 -s 3 -d 2 -p ack -e 40 -c 0 -i 12 -a 0 -x {3.0 2.0 1 ------- null}
- -t 0.21196 -s 3 -d 2 -p ack -e 40 -c 0 -i 12 -a 0 -x {3.0 2.0 1 ------- null}
h -t 0.21196 -s 3 -d 2 -p ack -e 40 -c 0 -i 12 -a 0 -x {3.0 2.0 -1 ------- null}
r -t 0.21328 -s 3 -d 2 -p ack -e 40 -c 0 -i 12 -a 0 -x {3.0 2.0 1 ------- null}
+ -t 0.21328 -s 2 -d 3 -p tcp -e 1040 -c 0 -i 13 -a 0 -x {2.0 3.0 3 ------- null}
+ -t 0.21328 -s 2 -d 3 -p tcp -e 1040 -c 0 -i 14 -a 0 -x {2.0 3.0 4 ------- null}
- -t 0.21928 -s 2 -d 3 -p tcp -e 1040 -c 0 -i 13 -a 0 -x {2.0 3.0 3 ------- null}
h -t 0.21928 -s 2 -d 3 -p tcp -e 1040 -c 0 -i 13 -a 0 -x {2.0 3.0 -1 ------- null}
r -t 0.22028 -s 2 -d 3 -p tcp -e 1040 -c 0 -i 11 -a 0 -x {2.0 3.0 2 ------- null}
+ -t 0.22028 -s 3 -d 2 -p ack -e 40 -c 0 -i 15 -a 0 -x {3.0 2.0 2 ------- null}
- -t 0.22028 -s 3 -d 2 -p ack -e 40 -c 0 -i 15 -a 0 -x {3.0 2.0 2 ------- null}
h -t 0.22028 -s 3 -d 2 -p ack -e 40 -c 0 -i 15 -a 0 -x {3.0 2.0 -1 ------- null}
r -t 0.2216 -s 3 -d 2 -p ack -e 40 -c 0 -i 15 -a 0 -x {3.0 2.0 2 ------- null}
+ -t 0.2216 -s 2 -d 3 -p tcp -e 1040 -c 0 -i 16 -a 0 -x {2.0 3.0 5 ------- null}
+ -t 0.2216 -s 2 -d 3 -p tcp -e 1040 -c 0 -i 17 -a 0 -x {2.0 3.0 6 ------- null}
r -t 0.221804 -s 6 -d 4 -p tcp -e 1040 -c 0 -i 7 -a 0 -x {0.0 5.0 3 ------- null}
+ -t 0.221804 -s 4 -d 5 -p tcp -e 1040 -c 0 -i 7 -a 0 -x {0.0 5.0 3 ------- null}
- -t 0.221804 -s 4 -d 5 -p tcp -e 1040 -c 0 -i 7 -a 0 -x {0.0 5.0 3 ------- null}
h -t 0.221804 -s 4 -d 5 -p tcp -e 1040 -c 0 -i 7 -a 0 -x {0.0 5.0 -1 ------- null}
r -t 0.22188928 -s 6 -d 4 -p tcp -e 1040 -c 0 -i 8 -a 0 -x {0.0 5.0 4 ------- null}
+ -t 0.22188928 -s 4 -d 5 -p tcp -e 1040 -c 0 -i 8 -a 0 -x {0.0 5.0 4 ------- null}
r -t 0.22197456 -s 6 -d 4 -p tcp -e 1040 -c 0 -i 9 -a 0 -x {0.0 5.0 5 ------- null}
+ -t 0.22197456 -s 4 -d 5 -p tcp -e 1040 -c 0 -i 9 -a 0 -x {0.0 5.0 5 ------- null}
- -t 0.2276 -s 2 -d 3 -p tcp -e 1040 -c 0 -i 14 -a 0 -x {2.0 3.0 4 ------- null}
h -t 0.2276 -s 2 -d 3 -p tcp -e 1040 -c 0 -i 14 -a 0 -x {2.0 3.0 -1 ------- null}
r -t 0.2286 -s 2 -d 3 -p tcp -e 1040 -c 0 -i 13 -a 0 -x {2.0 3.0 3 ------- null}
+ -t 0.2286 -s 3 -d 2 -p ack -e 40 -c 0 -i 18 -a 0 -x {3.0 2.0 3 ------- null}
- -t 0.2286 -s 3 -d 2 -p ack -e 40 -c 0 -i 18 -a 0 -x {3.0 2.0 3 ------- null}
h -t 0.2286 -s 3 -d 2 -p ack -e 40 -c 0 -i 18 -a 0 -x {3.0 2.0 -1 ------- null}
r -t 0.22992 -s 3 -d 2 -p ack -e 40 -c 0 -i 18 -a 0 -x {3.0 2.0 3 ------- null}
+ -t 0.22992 -s 2 -d 3 -p tcp -e 1040 -c 0 -i 19 -a 0 -x {2.0 3.0 7 ------- null}
+ -t 0.22992 -s 2 -d 3 -p tcp -e 1040 -c 0 -i 20 -a 0 -x {2.0 3.0 8 ------- null}
- -t 0.230124 -s 4 -d 5 -p tcp -e 1040 -c 0 -i 8 -a 0 -x {0.0 5.0 4 ------- null}
h -t 0.230124 -s 4 -d 5 -p tcp -e 1040 -c 0 -i 8 -a 0 -x {0.0 5.0 -1 ------- null}
r -t 0.231124 -s 4 -d 5 -p tcp -e 1040 -c 0 -i 7 -a 0 -x {0.0 5.0 3 ------- null}
- -t 0.23592 -s 2 -d 3 -p tcp -e 1040 -c 0 -i 16 -a 0 -x {2.0 3.0 5 ------- null}
h -t 0.23592 -s 2 -d 3 -p tcp -e 1040 -c 0 -i 16 -a 0 -x {2.0 3.0 -1 ------- null}
r -t 0.23692 -s 2 -d 3 -p tcp -e 1040 -c 0 -i 14 -a 0 -x {2.0 3.0 4 ------- null}
+ -t 0.23692 -s 3 -d 2 -p ack -e 40 -c 0 -i 21 -a 0 -x {3.0 2.0 4 ------- null}
- -t 0.23692 -s 3 -d 2 -p ack -e 40 -c 0 -i 21 -a 0 -x {3.0 2.0 4 ------- null}
h -t 0.23692 -s 3 -d 2 -p ack -e 40 -c 0 -i 21 -a 0 -x {3.0 2.0 -1 ------- null}
r -t 0.23824 -s 3 -d 2 -p ack -e 40 -c 0 -i 21 -a 0 -x {3.0 2.0 4 ------- null}
+ -t 0.23824 -s 2 -d 3 -p tcp -e 1040 -c 0 -i 22 -a 0 -x {2.0 3.0 9 ------- null}
+ -t 0.23824 -s 2 -d 3 -p tcp -e 1040 -c 0 -i 23 -a 0 -x {2.0 3.0 10 ------- null}
d -t 0.23824 -s 2 -d 3 -p tcp -e 1040 -c 0 -i 23 -a 0 -x {2.0 3.0 10 ------- null}
- -t 0.238444 -s 4 -d 5 -p tcp -e 1040 -c 0 -i 9 -a 0 -x {0.0 5.0 5 ------- null}
h -t 0.238444 -s 4 -d 5 -p tcp -e 1040 -c 0 -i 9 -a 0 -x {0.0 5.0 -1 ------- null}
r -t 0.239444 -s 4 -d 5 -p tcp -e 1040 -c 0 -i 8 -a 0 -x {0.0 5.0 4 ------- null}
+ -t 0.239444 -s 5 -d 4 -p ack -e 40 -c 0 -i 24 -a 0 -x {5.0 0.0 4 ------- null}
- -t 0.239444 -s 5 -d 4 -p ack -e 40 -c 0 -i 24 -a 0 -x {5.0 0.0 4 ------- null}
h -t 0.239444 -s 5 -d 4 -p ack -e 40 -c 0 -i 24 -a 0 -x {5.0 0.0 -1 ------- null}
r -t 0.240764 -s 5 -d 4 -p ack -e 40 -c 0 -i 24 -a 0 -x {5.0 0.0 4 ------- null}
h -t 0.240764 -s 4 -d 6 -p ack -e 40 -c 0 -i 24 -a 0 -x {5.0 0.0 4 ------- null}
- -t 0.24424 -s 2 -d 3 -p tcp -e 1040 -c 0 -i 17 -a 0 -x {2.0 3.0 6 ------- null}
h -t 0.24424 -s 2 -d 3 -p tcp -e 1040 -c 0 -i 17 -a 0 -x {2.0 3.0 -1 ------- null}
r -t 0.24524 -s 2 -d 3 -p tcp -e 1040 -c 0 -i 16 -a 0 -x {2.0 3.0 5 ------- null}
+ -t 0.24524 -s 3 -d 2 -p ack -e 40 -c 0 -i 25 -a 0 -x {3.0 2.0 5 ------- null}
- -t 0.24524 -s 3 -d 2 -p ack -e 40 -c 0 -i 25 -a 0 -x {3.0 2.0 5 ------- null}
h -t 0.24524 -s 3 -d 2 -p ack -e 40 -c 0 -i 25 -a 0 -x {3.0 2.0 -1 ------- null}
r -t 0.24656 -s 3 -d 2 -p ack -e 40 -c 0 -i 25 -a 0 -x {3.0 2.0 5 ------- null}
+ -t 0.24656 -s 2 -d 3 -p tcp -e 1040 -c 0 -i 26 -a 0 -x {2.0 3.0 11 ------- null}
+ -t 0.24656 -s 2 -d 3 -p tcp -e 1040 -c 0 -i 27 -a 0 -x {2.0 3.0 12 ------- null}
d -t 0.24656 -s 2 -d 3 -p tcp -e 1040 -c 0 -i 27 -a 0 -x {2.0 3.0 12 ------- null}
r -t 0.247764 -s 4 -d 5 -p tcp -e 1040 -c 0 -i 9 -a 0 -x {0.0 5.0 5 ------- null}
+ -t 0.250764 -s 4 -d 6 -p ack -e 40 -c 0 -i 24 -a 0 -x {5.0 0.0 4 ------- null}
- -t 0.250764 -s 4 -d 6 -p ack -e 40 -c 0 -i 24 -a 0 -x {5.0 0.0 4 ------- null}
h -t 0.250764 -s 4 -d 6 -p ack -e 40 -c 0 -i 24 -a 0 -x {5.0 0.0 -1 ------- null}
- -t 0.25256 -s 2 -d 3 -p tcp -e 1040 -c 0 -i 19 -a 0 -x {2.0 3.0 7 ------- null}
h -t 0.25256 -s 2 -d 3 -p tcp -e 1040 -c 0 -i 19 -a 0 -x {2.0 3.0 -1 ------- null}
r -t 0.25356 -s 2 -d 3 -p tcp -e 1040 -c 0 -i 17 -a 0 -x {2.0 3.0 6 ------- null}
+ -t 0.25356 -s 3 -d 2 -p ack -e 40 -c 0 -i 28 -a 0 -x {3.0 2.0 6 ------- null}
- -t 0.25356 -s 3 -d 2 -p ack -e 40 -c 0 -i 28 -a 0 -x {3.0 2.0 6 ------- null}
h -t 0.25356 -s 3 -d 2 -p ack -e 40 -c 0 -i 28 -a 0 -x {3.0 2.0 -1 ------- null}
r -t 0.25488 -s 3 -d 2 -p ack -e 40 -c 0 -i 28 -a 0 -x {3.0 2.0 6 ------- null}
+ -t 0.25488 -s 2 -d 3 -p tcp -e 1040 -c 0 -i 29 -a 0 -x {2.0 3.0 13 ------- null}
+ -t 0.25488 -s 2 -d 3 -p tcp -e 1040 -c 0 -i 30 -a 0 -x {2.0 3.0 14 ------- null}
d -t 0.25488 -s 2 -d 3 -p tcp -e 1040 -c 0 -i 30 -a 0 -x {2.0 3.0 14 ------- null}
r -t 0.26077312 -s 6 -d 0 -p ack -e 40 -c 0 -i 24 -a 0 -x {5.0 0.0 4 ------- null}
h -t 0.26077312 -s 0 -d 6 -p tcp -e 1040 -c 0 -i 31 -a 0 -x {0.0 5.0 6 ------- null}
h -t 0.26077312 -s 0 -d 6 -p tcp -e 1040 -c 0 -i 32 -a 0 -x {0.0 5.0 7 ------- null}
h -t 0.26077312 -s 0 -d 6 -p tcp -e 1040 -c 0 -i 33 -a 0 -x {0.0 5.0 8 ------- null}
- -t 0.26088 -s 2 -d 3 -p tcp -e 1040 -c 0 -i 20 -a 0 -x {2.0 3.0 8 ------- null}
h -t 0.26088 -s 2 -d 3 -p tcp -e 1040 -c 0 -i 20 -a 0 -x {2.0 3.0 -1 ------- null}
r -t 0.26188 -s 2 -d 3 -p tcp -e 1040 -c 0 -i 19 -a 0 -x {2.0 3.0 7 ------- null}
+ -t 0.26188 -s 3 -d 2 -p ack -e 40 -c 0 -i 34 -a 0 -x {3.0 2.0 7 ------- null}
- -t 0.26188 -s 3 -d 2 -p ack -e 40 -c 0 -i 34 -a 0 -x {3.0 2.0 7 ------- null}
h -t 0.26188 -s 3 -d 2 -p ack -e 40 -c 0 -i 34 -a 0 -x {3.0 2.0 -1 ------- null}
r -t 0.2632 -s 3 -d 2 -p ack -e 40 -c 0 -i 34 -a 0 -x {3.0 2.0 7 ------- null}
+ -t 0.2632 -s 2 -d 3 -p tcp -e 1040 -c 0 -i 35 -a 0 -x {2.0 3.0 15 ------- null}
+ -t 0.2632 -s 2 -d 3 -p tcp -e 1040 -c 0 -i 36 -a 0 -x {2.0 3.0 16 ------- null}
d -t 0.2632 -s 2 -d 3 -p tcp -e 1040 -c 0 -i 36 -a 0 -x {2.0 3.0 16 ------- null}
- -t 0.2692 -s 2 -d 3 -p tcp -e 1040 -c 0 -i 22 -a 0 -x {2.0 3.0 9 ------- null}
h -t 0.2692 -s 2 -d 3 -p tcp -e 1040 -c 0 -i 22 -a 0 -x {2.0 3.0 -1 ------- null}
r -t 0.2702 -s 2 -d 3 -p tcp -e 1040 -c 0 -i 20 -a 0 -x {2.0 3.0 8 ------- null}
+ -t 0.2702 -s 3 -d 2 -p ack -e 40 -c 0 -i 37 -a 0 -x {3.0 2.0 8 ------- null}
- -t 0.2702 -s 3 -d 2 -p ack -e 40 -c 0 -i 37 -a 0 -x {3.0 2.0 8 ------- null}
h -t 0.2702 -s 3 -d 2 -p ack -e 40 -c 0 -i 37 -a 0 -x {3.0 2.0 -1 ------- null}
+ -t 0.27077312 -s 0 -d 6 -p tcp -e 1040 -c 0 -i 31 -a 0 -x {0.0 5.0 6 ------- null}
- -t 0.27077312 -s 0 -d 6 -p tcp -e 1040 -c 0 -i 31 -a 0 -x {0.0 5.0 6 ------- null}
h -t 0.27077312 -s 0 -d 6 -p tcp -e 1040 -c 0 -i 31 -a 0 -x {0.0 5.0 -1 ------- null}
+ -t 0.27077312 -s 0 -d 6 -p tcp -e 1040 -c 0 -i 32 -a 0 -x {0.0 5.0 7 ------- null}
+ -t 0.27077312 -s 0 -d 6 -p tcp -e 1040 -c 0 -i 33 -a 0 -x {0.0 5.0 8 ------- null}
- -t 0.2708584 -s 0 -d 6 -p tcp -e 1040 -c 0 -i 32 -a 0 -x {0.0 5.0 7 ------- null}
h -t 0.2708584 -s 0 -d 6 -p tcp -e 1040 -c 0 -i 32 -a 0 -x {0.0 5.0 -1 ------- null}
- -t 0.27094368 -s 0 -d 6 -p tcp -e 1040 -c 0 -i 33 -a 0 -x {0.0 5.0 8 ------- null}
h -t 0.27094368 -s 0 -d 6 -p tcp -e 1040 -c 0 -i 33 -a 0 -x {0.0 5.0 -1 ------- null}
r -t 0.27152 -s 3 -d 2 -p ack -e 40 -c 0 -i 37 -a 0 -x {3.0 2.0 8 ------- null}
+ -t 0.27152 -s 2 -d 3 -p tcp -e 1040 -c 0 -i 38 -a 0 -x {2.0 3.0 17 ------- null}
+ -t 0.27152 -s 2 -d 3 -p tcp -e 1040 -c 0 -i 39 -a 0 -x {2.0 3.0 18 ------- null}
d -t 0.27152 -s 2 -d 3 -p tcp -e 1040 -c 0 -i 39 -a 0 -x {2.0 3.0 18 ------- null}
- -t 0.27752 -s 2 -d 3 -p tcp -e 1040 -c 0 -i 26 -a 0 -x {2.0 3.0 11 ------- null}
h -t 0.27752 -s 2 -d 3 -p tcp -e 1040 -c 0 -i 26 -a 0 -x {2.0 3.0 -1 ------- null}
r -t 0.27852 -s 2 -d 3 -p tcp -e 1040 -c 0 -i 22 -a 0 -x {2.0 3.0 9 ------- null}
+ -t 0.27852 -s 3 -d 2 -p ack -e 40 -c 0 -i 40 -a 0 -x {3.0 2.0 9 ------- null}
- -t 0.27852 -s 3 -d 2 -p ack -e 40 -c 0 -i 40 -a 0 -x {3.0 2.0 9 ------- null}
h -t 0.27852 -s 3 -d 2 -p ack -e 40 -c 0 -i 40 -a 0 -x {3.0 2.0 -1 ------- null}
r -t 0.27984 -s 3 -d 2 -p ack -e 40 -c 0 -i 40 -a 0 -x {3.0 2.0 9 ------- null}
+ -t 0.27984 -s 2 -d 3 -p tcp -e 1040 -c 0 -i 41 -a 0 -x {2.0 3.0 19 ------- null}
+ -t 0.27984 -s 2 -d 3 -p tcp -e 1040 -c 0 -i 42 -a 0 -x {2.0 3.0 20 ------- null}
d -t 0.27984 -s 2 -d 3 -p tcp -e 1040 -c 0 -i 42 -a 0 -x {2.0 3.0 20 ------- null}
r -t 0.28086144 -s 6 -d 4 -p tcp -e 1040 -c 0 -i 31 -a 0 -x {0.0 5.0 6 ------- null}
+ -t 0.28086144 -s 4 -d 5 -p tcp -e 1040 -c 0 -i 31 -a 0 -x {0.0 5.0 6 ------- null}
- -t 0.28086144 -s 4 -d 5 -p tcp -e 1040 -c 0 -i 31 -a 0 -x {0.0 5.0 6 ------- null}
h -t 0.28086144 -s 4 -d 5 -p tcp -e 1040 -c 0 -i 31 -a 0 -x {0.0 5.0 -1 ------- null}
r -t 0.28094672 -s 6 -d 4 -p tcp -e 1040 -c 0 -i 32 -a 0 -x {0.0 5.0 7 ------- null}
+ -t 0.28094672 -s 4 -d 5 -p tcp -e 1040 -c 0 -i 32 -a 0 -x {0.0 5.0 7 ------- null}
r -t 0.281032 -s 6 -d 4 -p tcp -e 1040 -c 0 -i 33 -a 0 -x {0.0 5.0 8 ------- null}
+ -t 0.281032 -s 4 -d 5 -p tcp -e 1040 -c 0 -i 33 -a 0 -x {0.0 5.0 8 ------- null}
- -t 0.28584 -s 2 -d 3 -p tcp -e 1040 -c 0 -i 29 -a 0 -x {2.0 3.0 13 ------- null}
h -t 0.28584 -s 2 -d 3 -p tcp -e 1040 -c 0 -i 29 -a 0 -x {2.0 3.0 -1 ------- null}
r -t 0.28684 -s 2 -d 3 -p tcp -e 1040 -c 0 -i 26 -a 0 -x {2.0 3.0 11 ------- null}
+ -t 0.28684 -s 3 -d 2 -p ack -e 40 -c 0 -i 43 -a 0 -x {3.0 2.0 9 ------- null}
- -t 0.28684 -s 3 -d 2 -p ack -e 40 -c 0 -i 43 -a 0 -x {3.0 2.0 9 ------- null}
h -t 0.28684 -s 3 -d 2 -p ack -e 40 -c 0 -i 43 -a 0 -x {3.0 2.0 -1 ------- null}
r -t 0.28816 -s 3 -d 2 -p ack -e 40 -c 0 -i 43 -a 0 -x {3.0 2.0 9 ------- null}
+ -t 0.28816 -s 2 -d 3 -p tcp -e 1040 -c 0 -i 44 -a 0 -x {2.0 3.0 21 ------- null}
- -t 0.28918144 -s 4 -d 5 -p tcp -e 1040 -c 0 -i 32 -a 0 -x {0.0 5.0 7 ------- null}
h -t 0.28918144 -s 4 -d 5 -p tcp -e 1040 -c 0 -i 32 -a 0 -x {0.0 5.0 -1 ------- null}
r -t 0.29018144 -s 4 -d 5 -p tcp -e 1040 -c 0 -i 31 -a 0 -x {0.0 5.0 6 ------- null}
+ -t 0.29018144 -s 5 -d 4 -p ack -e 40 -c 0 -i 45 -a 0 -x {5.0 0.0 6 ------- null}
- -t 0.29018144 -s 5 -d 4 -p ack -e 40 -c 0 -i 45 -a 0 -x {5.0 0.0 6 ------- null}
h -t 0.29018144 -s 5 -d 4 -p ack -e 40 -c 0 -i 45 -a 0 -x {5.0 0.0 -1 ------- null}
r -t 0.29150144 -s 5 -d 4 -p ack -e 40 -c 0 -i 45 -a 0 -x {5.0 0.0 6 ------- null}
h -t 0.29150144 -s 4 -d 6 -p ack -e 40 -c 0 -i 45 -a 0 -x {5.0 0.0 6 ------- null}
- -t 0.29416 -s 2 -d 3 -p tcp -e 1040 -c 0 -i 35 -a 0 -x {2.0 3.0 15 ------- null}
h -t 0.29416 -s 2 -d 3 -p tcp -e 1040 -c 0 -i 35 -a 0 -x {2.0 3.0 -1 ------- null}
r -t 0.29516 -s 2 -d 3 -p tcp -e 1040 -c 0 -i 29 -a 0 -x {2.0 3.0 13 ------- null}
+ -t 0.29516 -s 3 -d 2 -p ack -e 40 -c 0 -i 46 -a 0 -x {3.0 2.0 9 ------- null}
- -t 0.29516 -s 3 -d 2 -p ack -e 40 -c 0 -i 46 -a 0 -x {3.0 2.0 9 ------- null}
h -t 0.29516 -s 3 -d 2 -p ack -e 40 -c 0 -i 46 -a 0 -x {3.0 2.0 -1 ------- null}
r -t 0.29648 -s 3 -d 2 -p ack -e 40 -c 0 -i 46 -a 0 -x {3.0 2.0 9 ------- null}
+ -t 0.29648 -s 2 -d 3 -p tcp -e 1040 -c 0 -i 47 -a 0 -x {2.0 3.0 22 ------- null}
- -t 0.29750144 -s 4 -d 5 -p tcp -e 1040 -c 0 -i 33 -a 0 -x {0.0 5.0 8 ------- null}
h -t 0.29750144 -s 4 -d 5 -p tcp -e 1040 -c 0 -i 33 -a 0 -x {0.0 5.0 -1 ------- null}
r -t 0.29850144 -s 4 -d 5 -p tcp -e 1040 -c 0 -i 32 -a 0 -x {0.0 5.0 7 ------- null}
+ -t 0.30150144 -s 4 -d 6 -p ack -e 40 -c 0 -i 45 -a 0 -x {5.0 0.0 6 ------- null}
- -t 0.30150144 -s 4 -d 6 -p ack -e 40 -c 0 -i 45 -a 0 -x {5.0 0.0 6 ------- null}
h -t 0.30150144 -s 4 -d 6 -p ack -e 40 -c 0 -i 45 -a 0 -x {5.0 0.0 -1 ------- null}
- -t 0.30248 -s 2 -d 3 -p tcp -e 1040 -c 0 -i 38 -a 0 -x {2.0 3.0 17 ------- null}
h -t 0.30248 -s 2 -d 3 -p tcp -e 1040 -c 0 -i 38 -a 0 -x {2.0 3.0 -1 ------- null}
r -t 0.30348 -s 2 -d 3 -p tcp -e 1040 -c 0 -i 35 -a 0 -x {2.0 3.0 15 ------- null}
+ -t 0.30348 -s 3 -d 2 -p ack -e 40 -c 0 -i 48 -a 0 -x {3.0 2.0 9 ------- null}
- -t 0.30348 -s 3 -d 2 -p ack -e 40 -c 0 -i 48 -a 0 -x {3.0 2.0 9 ------- null}
h -t 0.30348 -s 3 -d 2 -p ack -e 40 -c 0 -i 48 -a 0 -x {3.0 2.0 -1 ------- null}
r -t 0.3048 -s 3 -d 2 -p ack -e 40 -c 0 -i 48 -a 0 -x {3.0 2.0 9 ------- null}
+ -t 0.3048 -s 2 -d 3 -p tcp -e 1040 -c 0 -i 49 -a 0 -x {2.0 3.0 10 ---A--- null}
r -t 0.30682144 -s 4 -d 5 -p tcp -e 1040 -c 0 -i 33 -a 0 -x {0.0 5.0 8 ------- null}
+ -t 0.30682144 -s 5 -d 4 -p ack -e 40 -c 0 -i 50 -a 0 -x {5.0 0.0 8 ------- null}
- -t 0.30682144 -s 5 -d 4 -p ack -e 40 -c 0 -i 50 -a 0 -x {5.0 0.0 8 ------- null}
h -t 0.30682144 -s 5 -d 4 -p ack -e 40 -c 0 -i 50 -a 0 -x {5.0 0.0 -1 ------- null}
r -t 0.30814144 -s 5 -d 4 -p ack -e 40 -c 0 -i 50 -a 0 -x {5.0 0.0 8 ------- null}
h -t 0.30814144 -s 4 -d 6 -p ack -e 40 -c 0 -i 50 -a 0 -x {5.0 0.0 8 ------- null}
- -t 0.3108 -s 2 -d 3 -p tcp -e 1040 -c 0 -i 41 -a 0 -x {2.0 3.0 19 ------- null}
h -t 0.3108 -s 2 -d 3 -p tcp -e 1040 -c 0 -i 41 -a 0 -x {2.0 3.0 -1 ------- null}
r -t 0.31151056 -s 6 -d 0 -p ack -e 40 -c 0 -i 45 -a 0 -x {5.0 0.0 6 ------- null}
h -t 0.31151056 -s 0 -d 6 -p tcp -e 1040 -c 0 -i 51 -a 0 -x {0.0 5.0 9 ------- null}
h -t 0.31151056 -s 0 -d 6 -p tcp -e 1040 -c 0 -i 52 -a 0 -x {0.0 5.0 10 ------- null}
h -t 0.31151056 -s 0 -d 6 -p tcp -e 1040 -c 0 -i 53 -a 0 -x {0.0 5.0 11 ------- null}
r -t 0.3118 -s 2 -d 3 -p tcp -e 1040 -c 0 -i 38 -a 0 -x {2.0 3.0 17 ------- null}
+ -t 0.3118 -s 3 -d 2 -p ack -e 40 -c 0 -i 54 -a 0 -x {3.0 2.0 9 ------- null}
- -t 0.3118 -s 3 -d 2 -p ack -e 40 -c 0 -i 54 -a 0 -x {3.0 2.0 9 ------- null}
h -t 0.3118 -s 3 -d 2 -p ack -e 40 -c 0 -i 54 -a 0 -x {3.0 2.0 -1 ------- null}
r -t 0.31312 -s 3 -d 2 -p ack -e 40 -c 0 -i 54 -a 0 -x {3.0 2.0 9 ------- null}
+ -t 0.31814144 -s 4 -d 6 -p ack -e 40 -c 0 -i 50 -a 0 -x {5.0 0.0 8 ------- null}
- -t 0.31814144 -s 4 -d 6 -p ack -e 40 -c 0 -i 50 -a 0 -x {5.0 0.0 8 ------- null}
h -t 0.31814144 -s 4 -d 6 -p ack -e 40 -c 0 -i 50 -a 0 -x {5.0 0.0 -1 ------- null}
- -t 0.31912 -s 2 -d 3 -p tcp -e 1040 -c 0 -i 44 -a 0 -x {2.0 3.0 21 ------- null}
h -t 0.31912 -s 2 -d 3 -p tcp -e 1040 -c 0 -i 44 -a 0 -x {2.0 3.0 -1 ------- null}
r -t 0.32012 -s 2 -d 3 -p tcp -e 1040 -c 0 -i 41 -a 0 -x {2.0 3.0 19 ------- null}
+ -t 0.32012 -s 3 -d 2 -p ack -e 40 -c 0 -i 55 -a 0 -x {3.0 2.0 9 ------- null}
- -t 0.32012 -s 3 -d 2 -p ack -e 40 -c 0 -i 55 -a 0 -x {3.0 2.0 9 ------- null}
h -t 0.32012 -s 3 -d 2 -p ack -e 40 -c 0 -i 55 -a 0 -x {3.0 2.0 -1 ------- null}
r -t 0.32144 -s 3 -d 2 -p ack -e 40 -c 0 -i 55 -a 0 -x {3.0 2.0 9 ------- null}
+ -t 0.32151056 -s 0 -d 6 -p tcp -e 1040 -c 0 -i 51 -a 0 -x {0.0 5.0 9 ------- null}
- -t 0.32151056 -s 0 -d 6 -p tcp -e 1040 -c 0 -i 51 -a 0 -x {0.0 5.0 9 ------- null}
h -t 0.32151056 -s 0 -d 6 -p tcp -e 1040 -c 0 -i 51 -a 0 -x {0.0 5.0 -1 ------- null}
+ -t 0.32151056 -s 0 -d 6 -p tcp -e 1040 -c 0 -i 52 -a 0 -x {0.0 5.0 10 ------- null}
+ -t 0.32151056 -s 0 -d 6 -p tcp -e 1040 -c 0 -i 53 -a 0 -x {0.0 5.0 11 ------- null}
- -t 0.32159584 -s 0 -d 6 -p tcp -e 1040 -c 0 -i 52 -a 0 -x {0.0 5.0 10 ------- null}
h -t 0.32159584 -s 0 -d 6 -p tcp -e 1040 -c 0 -i 52 -a 0 -x {0.0 5.0 -1 ------- null}
- -t 0.32168112 -s 0 -d 6 -p tcp -e 1040 -c 0 -i 53 -a 0 -x {0.0 5.0 11 ------- null}
h -t 0.32168112 -s 0 -d 6 -p tcp -e 1040 -c 0 -i 53 -a 0 -x {0.0 5.0 -1 ------- null}
- -t 0.32744 -s 2 -d 3 -p tcp -e 1040 -c 0 -i 47 -a 0 -x {2.0 3.0 22 ------- null}
h -t 0.32744 -s 2 -d 3 -p tcp -e 1040 -c 0 -i 47 -a 0 -x {2.0 3.0 -1 ------- null}
r -t 0.32815056 -s 6 -d 0 -p ack -e 40 -c 0 -i 50 -a 0 -x {5.0 0.0 8 ------- null}
h -t 0.32815056 -s 0 -d 6 -p tcp -e 1040 -c 0 -i 56 -a 0 -x {0.0 5.0 12 ------- null}
h -t 0.32815056 -s 0 -d 6 -p tcp -e 1040 -c 0 -i 57 -a 0 -x {0.0 5.0 13 ------- null}
h -t 0.32815056 -s 0 -d 6 -p tcp -e 1040 -c 0 -i 58 -a 0 -x {0.0 5.0 14 ------- null}
r -t 0.32844 -s 2 -d 3 -p tcp -e 1040 -c 0 -i 44 -a 0 -x {2.0 3.0 21 ------- null}
+ -t 0.32844 -s 3 -d 2 -p ack -e 40 -c 0 -i 59 -a 0 -x {3.0 2.0 9 ------- null}
- -t 0.32844 -s 3 -d 2 -p ack -e 40 -c 0 -i 59 -a 0 -x {3.0 2.0 9 ------- null}
h -t 0.32844 -s 3 -d 2 -p ack -e 40 -c 0 -i 59 -a 0 -x {3.0 2.0 -1 ------- null}
r -t 0.32976 -s 3 -d 2 -p ack -e 40 -c 0 -i 59 -a 0 -x {3.0 2.0 9 ------- null}
r -t 0.33159888 -s 6 -d 4 -p tcp -e 1040 -c 0 -i 51 -a 0 -x {0.0 5.0 9 ------- null}
+ -t 0.33159888 -s 4 -d 5 -p tcp -e 1040 -c 0 -i 51 -a 0 -x {0.0 5.0 9 ------- null}
- -t 0.33159888 -s 4 -d 5 -p tcp -e 1040 -c 0 -i 51 -a 0 -x {0.0 5.0 9 ------- null}
h -t 0.33159888 -s 4 -d 5 -p tcp -e 1040 -c 0 -i 51 -a 0 -x {0.0 5.0 -1 ------- null}
r -t 0.33168416 -s 6 -d 4 -p tcp -e 1040 -c 0 -i 52 -a 0 -x {0.0 5.0 10 ------- null}
+ -t 0.33168416 -s 4 -d 5 -p tcp -e 1040 -c 0 -i 52 -a 0 -x {0.0 5.0 10 ------- null}
r -t 0.33176944 -s 6 -d 4 -p tcp -e 1040 -c 0 -i 53 -a 0 -x {0.0 5.0 11 ------- null}
+ -t 0.33176944 -s 4 -d 5 -p tcp -e 1040 -c 0 -i 53 -a 0 -x {0.0 5.0 11 ------- null}
- -t 0.33576 -s 2 -d 3 -p tcp -e 1040 -c 0 -i 49 -a 0 -x {2.0 3.0 10 ---A--- null}
h -t 0.33576 -s 2 -d 3 -p tcp -e 1040 -c 0 -i 49 -a 0 -x {2.0 3.0 -1 ---A--- null}
r -t 0.33676 -s 2 -d 3 -p tcp -e 1040 -c 0 -i 47 -a 0 -x {2.0 3.0 22 ------- null}
+ -t 0.33676 -s 3 -d 2 -p ack -e 40 -c 0 -i 60 -a 0 -x {3.0 2.0 9 ------- null}
- -t 0.33676 -s 3 -d 2 -p ack -e 40 -c 0 -i 60 -a 0 -x {3.0 2.0 9 ------- null}
h -t 0.33676 -s 3 -d 2 -p ack -e 40 -c 0 -i 60 -a 0 -x {3.0 2.0 -1 ------- null}
r -t 0.33808 -s 3 -d 2 -p ack -e 40 -c 0 -i 60 -a 0 -x {3.0 2.0 9 ------- null}
+ -t 0.33815056 -s 0 -d 6 -p tcp -e 1040 -c 0 -i 56 -a 0 -x {0.0 5.0 12 ------- null}
- -t 0.33815056 -s 0 -d 6 -p tcp -e 1040 -c 0 -i 56 -a 0 -x {0.0 5.0 12 ------- null}
h -t 0.33815056 -s 0 -d 6 -p tcp -e 1040 -c 0 -i 56 -a 0 -x {0.0 5.0 -1 ------- null}
+ -t 0.33815056 -s 0 -d 6 -p tcp -e 1040 -c 0 -i 57 -a 0 -x {0.0 5.0 13 ------- null}
+ -t 0.33815056 -s 0 -d 6 -p tcp -e 1040 -c 0 -i 58 -a 0 -x {0.0 5.0 14 ------- null}
- -t 0.33823584 -s 0 -d 6 -p tcp -e 1040 -c 0 -i 57 -a 0 -x {0.0 5.0 13 ------- null}
h -t 0.33823584 -s 0 -d 6 -p tcp -e 1040 -c 0 -i 57 -a 0 -x {0.0 5.0 -1 ------- null}
- -t 0.33832112 -s 0 -d 6 -p tcp -e 1040 -c 0 -i 58 -a 0 -x {0.0 5.0 14 ------- null}
h -t 0.33832112 -s 0 -d 6 -p tcp -e 1040 -c 0 -i 58 -a 0 -x {0.0 5.0 -1 ------- null}
- -t 0.33991888 -s 4 -d 5 -p tcp -e 1040 -c 0 -i 52 -a 0 -x {0.0 5.0 10 ------- null}
h -t 0.33991888 -s 4 -d 5 -p tcp -e 1040 -c 0 -i 52 -a 0 -x {0.0 5.0 -1 ------- null}
r -t 0.34091888 -s 4 -d 5 -p tcp -e 1040 -c 0 -i 51 -a 0 -x {0.0 5.0 9 ------- null}
r -t 0.34508 -s 2 -d 3 -p tcp -e 1040 -c 0 -i 49 -a 0 -x {2.0 3.0 10 ---A--- null}
+ -t 0.34508 -s 3 -d 2 -p ack -e 40 -c 0 -i 61 -a 0 -x {3.0 2.0 11 ------- null}
- -t 0.34508 -s 3 -d 2 -p ack -e 40 -c 0 -i 61 -a 0 -x {3.0 2.0 11 ------- null}
h -t 0.34508 -s 3 -d 2 -p ack -e 40 -c 0 -i 61 -a 0 -x {3.0 2.0 -1 ------- null}
r -t 0.3464 -s 3 -d 2 -p ack -e 40 -c 0 -i 61 -a 0 -x {3.0 2.0 11 ------- null}
+ -t 0.3464 -s 2 -d 3 -p tcp -e 1040 -c 0 -i 62 -a 0 -x {2.0 3.0 12 ------- null}
- -t 0.3464 -s 2 -d 3 -p tcp -e 1040 -c 0 -i 62 -a 0 -x {2.0 3.0 12 ------- null}
h -t 0.3464 -s 2 -d 3 -p tcp -e 1040 -c 0 -i 62 -a 0 -x {2.0 3.0 -1 ------- null}
+ -t 0.3464 -s 2 -d 3 -p tcp -e 1040 -c 0 -i 63 -a 0 -x {2.0 3.0 13 ------- null}
r -t 0.34823888 -s 6 -d 4 -p tcp -e 1040 -c 0 -i 56 -a 0 -x {0.0 5.0 12 ------- null}
+ -t 0.34823888 -s 4 -d 5 -p tcp -e 1040 -c 0 -i 56 -a 0 -x {0.0 5.0 12 ------- null}
- -t 0.34823888 -s 4 -d 5 -p tcp -e 1040 -c 0 -i 53 -a 0 -x {0.0 5.0 11 ------- null}
h -t 0.34823888 -s 4 -d 5 -p tcp -e 1040 -c 0 -i 53 -a 0 -x {0.0 5.0 -1 ------- null}
r -t 0.34832416 -s 6 -d 4 -p tcp -e 1040 -c 0 -i 57 -a 0 -x {0.0 5.0 13 ------- null}
+ -t 0.34832416 -s 4 -d 5 -p tcp -e 1040 -c 0 -i 57 -a 0 -x {0.0 5.0 13 ------- null}
r -t 0.34840944 -s 6 -d 4 -p tcp -e 1040 -c 0 -i 58 -a 0 -x {0.0 5.0 14 ------- null}
+ -t 0.34840944 -s 4 -d 5 -p tcp -e 1040 -c 0 -i 58 -a 0 -x {0.0 5.0 14 ------- null}
d -t 0.34840944 -s 4 -d 5 -p tcp -e 1040 -c 0 -i 58 -a 0 -x {0.0 5.0 14 ------- null}
r -t 0.34923888 -s 4 -d 5 -p tcp -e 1040 -c 0 -i 52 -a 0 -x {0.0 5.0 10 ------- null}
+ -t 0.34923888 -s 5 -d 4 -p ack -e 40 -c 0 -i 64 -a 0 -x {5.0 0.0 10 ------- null}
- -t 0.34923888 -s 5 -d 4 -p ack -e 40 -c 0 -i 64 -a 0 -x {5.0 0.0 10 ------- null}
h -t 0.34923888 -s 5 -d 4 -p ack -e 40 -c 0 -i 64 -a 0 -x {5.0 0.0 -1 ------- null}
r -t 0.35055888 -s 5 -d 4 -p ack -e 40 -c 0 -i 64 -a 0 -x {5.0 0.0 10 ------- null}
h -t 0.35055888 -s 4 -d 6 -p ack -e 40 -c 0 -i 64 -a 0 -x {5.0 0.0 10 ------- null}
- -t 0.35472 -s 2 -d 3 -p tcp -e 1040 -c 0 -i 63 -a 0 -x {2.0 3.0 13 ------- null}
h -t 0.35472 -s 2 -d 3 -p tcp -e 1040 -c 0 -i 63 -a 0 -x {2.0 3.0 -1 ------- null}
r -t 0.35572 -s 2 -d 3 -p tcp -e 1040 -c 0 -i 62 -a 0 -x {2.0 3.0 12 ------- null}
+ -t 0.35572 -s 3 -d 2 -p ack -e 40 -c 0 -i 65 -a 0 -x {3.0 2.0 13 ------- null}
- -t 0.35572 -s 3 -d 2 -p ack -e 40 -c 0 -i 65 -a 0 -x {3.0 2.0 13 ------- null}
h -t 0.35572 -s 3 -d 2 -p ack -e 40 -c 0 -i 65 -a 0 -x {3.0 2.0 -1 ------- null}
- -t 0.35655888 -s 4 -d 5 -p tcp -e 1040 -c 0 -i 56 -a 0 -x {0.0 5.0 12 ------- null}
h -t 0.35655888 -s 4 -d 5 -p tcp -e 1040 -c 0 -i 56 -a 0 -x {0.0 5.0 -1 ------- null}
r -t 0.35704 -s 3 -d 2 -p ack -e 40 -c 0 -i 65 -a 0 -x {3.0 2.0 13 ------- null}
+ -t 0.35704 -s 2 -d 3 -p tcp -e 1040 -c 0 -i 66 -a 0 -x {2.0 3.0 14 ------- null}
+ -t 0.35704 -s 2 -d 3 -p tcp -e 1040 -c 0 -i 67 -a 0 -x {2.0 3.0 15 ------- null}
+ -t 0.35704 -s 2 -d 3 -p tcp -e 1040 -c 0 -i 68 -a 0 -x {2.0 3.0 16 ------- null}
r -t 0.35755888 -s 4 -d 5 -p tcp -e 1040 -c 0 -i 53 -a 0 -x {0.0 5.0 11 ------- null}
+ -t 0.36055888 -s 4 -d 6 -p ack -e 40 -c 0 -i 64 -a 0 -x {5.0 0.0 10 ------- null}
- -t 0.36055888 -s 4 -d 6 -p ack -e 40 -c 0 -i 64 -a 0 -x {5.0 0.0 10 ------- null}
h -t 0.36055888 -s 4 -d 6 -p ack -e 40 -c 0 -i 64 -a 0 -x {5.0 0.0 -1 ------- null}
- -t 0.36304 -s 2 -d 3 -p tcp -e 1040 -c 0 -i 66 -a 0 -x {2.0 3.0 14 ------- null}